75
Coordinates from ORCA-job /home/esp/scriptDevelopment/drFrankenstein/outputs/torsion_8-7-10-11/conformer_1_forwards/orca_scan Relaxed Surface Scan Step 1 E -133.308118248790
  C      14.752391    -76.095733     -8.641230
  O      15.918205    -76.170437     -8.252307
  C      13.578133    -76.474703     -7.781965
  H      13.908362    -77.106987     -6.962708
  H      13.137324    -75.568433     -7.370302
  H      12.822829    -76.982086     -8.375167
  N      14.434212    -75.627522     -9.853518
  C      15.439239    -75.250151    -10.814689
  C      14.737670    -74.441185    -11.908155
  O      13.564740    -74.599596    -12.186609
  C      16.206267    -76.494438    -11.403783
  C      16.097325    -76.639862    -12.917769
  O      15.765206    -77.680897    -10.770141
  O      16.634796    -80.035021    -10.439146
  O      18.228414    -78.024922    -10.141434
  O      16.318437    -78.722094     -8.489898
  C      17.303318    -80.415278    -11.629548
  C      15.130235    -81.187961    -12.606408
  O      16.514916    -82.641114    -11.191764
  C      14.317989    -82.353953    -13.210841
  O      15.214278    -80.100114    -13.484429
  C      12.885251    -81.913598    -13.593397
  O      14.227816    -83.456518    -12.350135
  N      12.226201    -81.208082    -12.514464
  C      11.712104    -81.841893    -11.411181
  C      12.230357    -79.841340    -12.583254
  P      16.867427    -78.525053     -9.943245
  C      11.299805    -81.046049    -10.307128
  C      11.876547    -79.128664    -11.375884
  C      11.560328    -83.226838    -11.316011
  N      12.569735    -79.270961    -13.702188
  C      10.753986    -81.663622     -9.171413
  C      11.017645    -83.817502    -10.193428
  C      12.698195    -77.923881    -13.780950
  C      12.097055    -77.664845    -11.391894
  C      10.602501    -83.025804     -9.098327
  C      10.868320    -85.303249    -10.139695
  C      10.012156    -83.663589     -7.880878
  C      16.555833    -81.633476    -12.176260
  N      11.452357    -79.705843    -10.298638
  N      12.480363    -77.183910    -12.600058
  O      13.012594    -77.341856    -14.791436
  O      11.964449    -76.947768    -10.416956
  H      13.478898    -75.734194    -10.194049
  H      16.173939    -74.624882    -10.293676
  H      17.267477    -76.374027    -11.149887
  H      16.580747    -75.804668    -13.416075
  H      15.065594    -76.708918    -13.248367
  H      16.598550    -77.557861    -13.215526
  H      16.270861    -77.834175     -8.079417
  H      18.341637    -80.669351    -11.395951
  H      17.290973    -79.601962    -12.358237
  H      16.381310    -82.192679    -10.343576
  H      14.630971    -80.812293    -11.705242
  H      15.438803    -80.404419    -14.371783
  H      14.818332    -82.659523    -14.151159
  H      15.062777    -83.534771    -11.855866
  H      12.314665    -82.798272    -13.874423
  H      12.926652    -81.208006    -14.425226
  H      10.455242    -81.019450     -8.359629
  H      12.676959    -76.179000    -12.642310
  H       9.820965    -85.577918    -10.019277
  H      11.413993    -85.708535     -9.288908
  H      11.249580    -85.763768    -11.046399
  H      10.721769    -84.354672     -7.427935
  H       9.118074    -84.229487     -8.139188
  H       9.745566    -82.909326     -7.146196
  H      17.093579    -82.050854    -13.036293
  H      11.887384    -83.860949    -12.121811
  N      15.520154    -73.535186    -12.514627
  C      15.058439    -72.714507    -13.609831
  H      16.484671    -73.446089    -12.237013
  H      15.628431    -72.926419    -14.515498
  H      14.010734    -72.953086    -13.781284
  H      15.154965    -71.656922    -13.361714
>
75
Coordinates from ORCA-job /home/esp/scriptDevelopment/drFrankenstein/outputs/torsion_8-7-10-11/conformer_1_forwards/orca_scan Relaxed Surface Scan Step 2 E -133.303324150900
  C      14.658161    -76.120298     -8.554659
  O      15.784854    -76.263182     -8.077710
  C      13.419106    -76.602011     -7.853718
  H      13.693962    -77.182674     -6.977944
  H      12.824163    -75.744877     -7.545833
  H      12.817562    -77.200093     -8.533170
  N      14.431345    -75.495012     -9.718367
  C      15.478221    -75.005689    -10.588003
  C      14.798915    -74.552095    -11.886171
  O      13.699031    -74.945630    -12.216391
  C      16.585507    -76.081691    -10.803406
  C      17.467211    -75.865725    -12.024578
  O      15.980468    -77.366067    -10.858129
  O      16.288310    -79.847144    -10.851391
  O      18.249164    -78.327949    -10.127648
  O      16.115946    -78.801668     -8.713176
  C      16.964320    -80.187342    -12.052973
  C      14.873356    -81.203927    -12.924700
  O      16.431416    -82.468213    -11.496301
  C      14.080215    -82.458248    -13.351090
  O      14.857843    -80.222362    -13.923863
  C      12.606605    -82.097785    -13.658669
  O      14.094507    -83.470565    -12.382030
  N      12.008375    -81.357225    -12.567884
  C      11.607425    -81.947176    -11.395704
  C      12.010898    -79.992272    -12.684173
  P      16.799595    -78.533231    -10.101677
  C      11.320423    -81.110219    -10.282788
  C      11.821937    -79.237722    -11.464093
  C      11.458076    -83.326547    -11.236749
  N      12.214211    -79.462301    -13.853296
  C      10.884525    -81.682565     -9.078380
  C      11.024791    -83.872787    -10.046446
  C      12.378498    -78.121649    -13.986437
  C      12.110458    -77.785463    -11.545502
  C      10.726530    -83.039501     -8.944480
  C      10.870047    -85.354307     -9.925453
  C      10.253835    -83.628572     -7.653116
  C      16.342517    -81.506453    -12.520770
  N      11.509606    -79.774387    -10.329598
  N      12.384733    -77.357097    -12.801481
  O      12.539399    -77.570652    -15.047844
  O      12.110440    -77.042620    -10.581915
  H      13.529885    -75.654243    -10.172849
  H      15.964483    -74.140395    -10.116522
  H      17.229791    -76.050313     -9.917100
  H      17.969500    -74.903554    -11.971657
  H      16.889522    -75.940056    -12.942850
  H      18.222517    -76.648023    -12.019988
  H      16.073842    -77.967868     -8.202833
  H      18.033790    -80.295419    -11.849286
  H      16.811571    -79.411091    -12.806941
  H      16.290623    -81.997803    -10.661037
  H      14.400850    -80.751064    -12.045451
  H      15.109984    -80.608276    -14.771226
  H      14.523870    -82.837245    -14.292563
  H      14.972517    -83.482789    -11.962058
  H      12.052201    -83.015573    -13.848611
  H      12.563018    -81.437799    -14.526853
  H      10.676856    -81.008809     -8.262158
  H      12.652190    -76.376078    -12.885640
  H       9.838777    -85.612958     -9.687831
  H      11.498245    -85.736462     -9.122206
  H      11.151433    -85.849998    -10.849958
  H      10.998494    -84.312852     -7.248717
  H       9.333258    -84.191448     -7.801869
  H      10.068519    -82.846666     -6.922320
  H      16.894374    -81.904812    -13.380564
  H      11.696988    -83.990768    -12.049411
  N      15.494420    -73.650605    -12.598816
  C      15.035439    -73.138243    -13.869133
  H      16.392493    -73.336560    -12.269420
  H      15.745073    -73.383765    -14.660394
  H      14.076468    -73.602826    -14.089804
  H      14.910503    -72.055645    -13.821228
>
75
Coordinates from ORCA-job /home/esp/scriptDevelopment/drFrankenstein/outputs/torsion_8-7-10-11/conformer_1_forwards/orca_scan Relaxed Surface Scan Step 3 E -133.315348559300
  C      13.560315    -77.100029     -8.833337
  O      14.145349    -78.174549     -8.747600
  C      12.291566    -76.809669     -8.075163
  H      12.089049    -77.618542     -7.380825
  H      12.384963    -75.874152     -7.530096
  H      11.474450    -76.721233     -8.787926
  N      13.982727    -76.050696     -9.558743
  C      15.158559    -75.916769    -10.412424
  C      14.648541    -75.717741    -11.861757
  O      13.872008    -74.808548    -12.084135
  C      16.226958    -76.983630    -10.147925
  C      17.622450    -76.486481    -10.512045
  O      15.946384    -78.209036    -10.811227
  O      17.110005    -80.436274    -10.960644
  O      16.905627    -79.358889     -8.679903
  O      14.872500    -80.374461     -9.924837
  C      17.260960    -80.257727    -12.354170
  C      14.880156    -80.750806    -13.038948
  O      16.503645    -82.528332    -12.590119
  C      13.930374    -81.665047    -13.837096
  O      14.780519    -79.417127    -13.474686
  C      12.455445    -81.194837    -13.738369
  O      13.989185    -83.005100    -13.424699
  N      12.146753    -80.382142    -12.577511
  C      12.082423    -80.907419    -11.311393
  C      11.924502    -79.051146    -12.781589
  P      16.226591    -79.543394     -9.952125
  C      11.763331    -80.041165    -10.231559
  C      11.635406    -78.247393    -11.617186
  C      12.318563    -82.254343    -11.030557
  N      11.957347    -78.584140    -13.999916
  C      11.694593    -80.556623     -8.927635
  C      12.266971    -82.739728     -9.740195
  C      11.725877    -77.270598    -14.246754
  C      11.431388    -76.792604    -11.829019
  C      11.947934    -81.879286     -8.664484
  C      12.558699    -84.181672     -9.484066
  C      11.900039    -82.400547     -7.264286
  C      16.351801    -81.231910    -13.118598
  N      11.549520    -78.724833    -10.416898
  N      11.492055    -76.429873    -13.139038
  O      11.725442    -76.798597    -15.358888
  O      11.226513    -76.002503    -10.932231
  H      13.304665    -75.314277     -9.717196
  H      15.612187    -74.949850    -10.146655
  H      16.228520    -77.190272     -9.071665
  H      17.880601    -75.626423     -9.901922
  H      17.680275    -76.209464    -11.563024
  H      18.335137    -77.283306    -10.311569
  H      14.316790    -79.906542     -9.284289
  H      18.307763    -80.489466    -12.575104
  H      17.039539    -79.230935    -12.648434
  H      16.602530    -82.426824    -11.630704
  H      14.594730    -80.756339    -11.983920
  H      14.745265    -79.396094    -14.439501
  H      14.224189    -81.606342    -14.902482
  H      14.911563    -83.218303    -13.197620
  H      11.829895    -82.089899    -13.737373
  H      12.203608    -80.569927    -14.596989
  H      11.446275    -79.865648     -8.138869
  H      11.410938    -75.438545    -13.340880
  H      11.704359    -84.668062     -9.014777
  H      13.405053    -84.278948     -8.805715
  H      12.791805    -84.699896    -10.409811
  H      12.877005    -82.780928     -6.969471
  H      11.185375    -83.217971     -7.179337
  H      11.613243    -81.613637     -6.572909
  H      16.670880    -81.276151    -14.168154
  H      12.582992    -82.931231    -11.826145
  N      15.180870    -76.497949    -12.810658
  C      14.898244    -76.289146    -14.212244
  H      15.590361    -77.380788    -12.542799
  H      14.229282    -77.051563    -14.608534
  H      14.424045    -75.315231    -14.320642
  H      15.832532    -76.303452    -14.775002
>
75
Coordinates from ORCA-job /home/esp/scriptDevelopment/drFrankenstein/outputs/torsion_8-7-10-11/conformer_1_forwards/orca_scan Relaxed Surface Scan Step 4 E -133.320927034000
  C      13.509340    -77.038853     -8.929876
  O      13.929183    -78.187083     -8.914410
  C      12.238405    -76.635333     -8.241695
  H      11.937608    -77.415697     -7.550671
  H      12.355284    -75.692639     -7.714049
  H      11.464500    -76.524477     -9.003513
  N      14.161683    -75.998277     -9.503402
  C      15.293449    -76.065884    -10.407803
  C      14.826334    -76.529588    -11.809881
  O      13.769802    -77.103883    -11.973855
  C      16.425611    -76.993619     -9.896641
  C      17.722262    -76.242410     -9.627140
  O      16.661519    -78.008554    -10.864432
  O      17.307634    -80.325105    -11.492850
  O      17.186236    -79.751019     -9.023863
  O      15.057585    -79.964448    -10.462327
  C      17.135445    -80.095088    -12.885548
  C      14.746963    -80.684468    -13.453533
  O      16.441467    -82.402679    -12.862378
  C      13.727469    -81.758365    -13.892454
  O      14.708918    -79.591038    -14.337059
  C      12.270748    -81.295087    -13.632981
  O      13.895917    -83.006109    -13.269251
  N      12.047586    -80.454549    -12.466364
  C      11.977491    -80.957885    -11.189076
  C      11.854256    -79.123774    -12.676898
  P      16.577766    -79.534189    -10.328467
  C      11.582049    -80.086939    -10.137720
  C      11.403335    -78.330367    -11.559469
  C      12.274523    -82.283914    -10.875167
  N      12.070594    -78.644299    -13.877099
  C      11.512143    -80.577902     -8.824973
  C      12.223878    -82.742533     -9.574699
  C      11.846017    -77.336539    -14.142205
  C      11.103628    -76.904379    -11.823581
  C      11.834716    -81.877679     -8.526271
  C      12.593633    -84.159416     -9.279889
  C      11.784543    -82.371509     -7.115678
  C      16.216650    -81.170140    -13.501629
  N      11.260788    -78.798008    -10.361111
  N      11.231953    -76.564632    -13.137238
  O      12.130980    -76.810084    -15.193349
  O      10.769244    -76.100862    -10.977218
  H      13.614616    -75.153688     -9.584189
  H      15.680892    -75.045415    -10.500402
  H      16.108411    -77.465265     -8.962663
  H      17.556367    -75.468102     -8.883300
  H      18.110334    -75.793366    -10.539266
  H      18.456924    -76.948059     -9.248333
  H      14.524943    -79.421822     -9.842902
  H      18.136745    -80.170745    -13.318069
  H      16.724952    -79.104805    -13.072519
  H      16.640087    -82.207490    -11.933158
  H      14.520584    -80.378030    -12.426462
  H      13.817403    -79.186841    -14.324593
  H      13.836169    -81.883789    -14.983446
  H      14.850149    -83.152974    -13.140725
  H      11.664032    -82.198027    -13.533388
  H      11.926542    -80.711204    -14.487939
  H      11.210485    -79.884362     -8.057156
  H      11.078076    -75.590590    -13.375354
  H      11.760939    -84.684098     -8.812725
  H      13.433315    -84.192808     -8.587201
  H      12.871772    -84.682605    -10.190216
  H      12.773815    -82.692329     -6.792480
  H      11.113064    -83.224606     -7.028002
  H      11.440691    -81.586907     -6.447972
  H      16.480167    -81.301223    -14.557619
  H      12.602709    -82.955955    -11.650897
  N      15.652187    -76.159365    -12.797912
  C      15.413512    -76.474070    -14.192632
  H      16.580381    -75.852671    -12.553300
  H      15.727405    -77.489152    -14.443378
  H      14.348330    -76.394225    -14.399686
  H      15.952869    -75.759110    -14.809402
>
75
Coordinates from ORCA-job /home/esp/scriptDevelopment/drFrankenstein/outputs/torsion_8-7-10-11/conformer_1_forwards/orca_scan Relaxed Surface Scan Step 5 E -133.313638706130
  C      13.487719    -76.754812     -9.058450
  O      13.660214    -77.964063     -9.153551
  C      12.248489    -76.182354     -8.446450
  H      11.864843    -76.866428     -7.695819
  H      12.412788    -75.198661     -8.017026
  H      11.499989    -76.114244     -9.240833
  N      14.420141    -75.831668     -9.424840
  C      15.505532    -76.138312    -10.345777
  C      14.847610    -76.561686    -11.686056
  O      13.652379    -76.747583    -11.785872
  C      16.418524    -77.202779     -9.694461
  C      17.383548    -76.582434     -8.694551
  O      17.057760    -78.014395    -10.668721
  O      17.170433    -80.300521    -11.739590
  O      16.767235    -80.179758     -9.263486
  O      14.951036    -79.414256    -10.926541
  C      17.051017    -80.049782    -13.134781
  C      14.691943    -80.725200    -13.667399
  O      16.483002    -82.391148    -13.192881
  C      13.668734    -81.838328    -13.972549
  O      14.562413    -79.682478    -14.601774
  C      12.231962    -81.377386    -13.613465
  O      13.914017    -83.048164    -13.302086
  N      12.075969    -80.495711    -12.464029
  C      12.062707    -80.958436    -11.168547
  C      11.851996    -79.173154    -12.701503
  P      16.483796    -79.539400    -10.539353
  C      11.649899    -80.072534    -10.136011
  C      11.368993    -78.370087    -11.603740
  C      12.433516    -82.256684    -10.821120
  N      12.044373    -78.716156    -13.914784
  C      11.644722    -80.519950     -8.806137
  C      12.449479    -82.669739     -9.504219
  C      11.762501    -77.423904    -14.215202
  C      10.973131    -76.975746    -11.910812
  C      12.049326    -81.788400     -8.473939
  C      12.909518    -84.051594     -9.172968
  C      12.077794    -82.231020     -7.045830
  C      16.177251    -81.148521    -13.775806
  N      11.248725    -78.813596    -10.394081
  N      11.120457    -76.656107    -13.229362
  O      12.017478    -76.921436    -15.285336
  O      10.544547    -76.183789    -11.099202
  H      14.089220    -74.879070     -9.452095
  H      16.076746    -75.222661    -10.525895
  H      15.774106    -77.851652     -9.094041
  H      16.817984    -76.008145     -7.967334
  H      18.104337    -75.933812     -9.190108
  H      17.921953    -77.377817     -8.187306
  H      14.407581    -78.944900    -10.243376
  H      18.067684    -80.098469    -13.534333
  H      16.620505    -79.070879    -13.330399
  H      16.699510    -82.225429    -12.261965
  H      14.516190    -80.373283    -12.646253
  H      13.659657    -79.298468    -14.543699
  H      13.687913    -82.017948    -15.060897
  H      14.876153    -83.197509    -13.298098
  H      11.646416    -82.282147    -13.433854
  H      11.816962    -80.831646    -14.462440
  H      11.336057    -79.812234     -8.054349
  H      10.910519    -75.699471    -13.492971
  H      12.132454    -84.598603     -8.640403
  H      13.784931    -84.009360     -8.526385
  H      13.168754    -84.598392    -10.075028
  H      13.094653    -82.486374     -6.751273
  H      11.457178    -83.114432     -6.901419
  H      11.716932    -81.440714     -6.394055
  H      16.416979    -81.223931    -14.842585
  H      12.770157    -82.938273    -11.584984
  N      15.701872    -76.537653    -12.717687
  C      15.290704    -76.646801    -14.102128
  H      16.691030    -76.511214    -12.521579
  H      15.394310    -77.660650    -14.491913
  H      14.242590    -76.365134    -14.173931
  H      15.888453    -75.963525    -14.703277
>
75
Coordinates from ORCA-job /home/esp/scriptDevelopment/drFrankenstein/outputs/torsion_8-7-10-11/conformer_1_forwards/orca_scan Relaxed Surface Scan Step 6 E -133.298815716950
  C      13.522014    -76.494960     -8.950596
  O      13.344265    -77.643649     -8.617273
  C      12.527101    -75.398358     -8.685623
  H      11.934907    -75.649648     -7.810999
  H      12.999739    -74.429595     -8.551138
  H      11.854740    -75.360970     -9.545521
  N      14.666460    -76.060036     -9.572958
  C      15.549896    -76.889348    -10.388137
  C      14.810732    -77.096736    -11.725557
  O      14.064175    -78.032571    -11.923227
  C      15.862625    -78.264991     -9.784368
  C      16.149515    -78.283432     -8.293171
  O      16.939195    -78.768687    -10.570680
  O      17.816137    -80.469119    -12.117013
  O      18.036845    -80.969747     -9.655876
  O      15.725256    -80.990974    -10.728584
  C      17.236411    -79.960992    -13.309937
  C      14.793690    -80.583509    -13.630464
  O      16.623736    -82.291802    -13.542440
  C      13.793529    -81.747400    -13.799598
  O      14.538474    -79.562184    -14.562373
  C      12.337860    -81.333014    -13.468373
  O      14.107972    -82.862900    -13.003344
  N      12.136846    -80.324497    -12.438320
  C      12.171510    -80.620471    -11.097360
  C      11.812156    -79.067621    -12.837395
  P      17.191165    -80.337363    -10.658747
  C      11.703128    -79.647336    -10.172551
  C      11.408231    -78.124884    -11.820765
  C      12.636532    -81.837980    -10.601227
  N      11.848984    -78.794518    -14.121505
  C      11.681750    -79.950631     -8.802284
  C      12.654997    -82.098666     -9.245687
  C      11.481573    -77.578182    -14.582991
  C      11.122699    -76.742836    -12.264300
  C      12.158356    -81.146610     -8.326857
  C      13.207251    -83.399516     -8.755354
  C      12.163724    -81.434833     -6.858909
  C      16.263105    -80.988460    -13.934056
  N      11.308529    -78.423195    -10.565424
  N      11.095534    -76.613400    -13.623161
  O      11.484410    -77.268856    -15.749944
  O      10.960255    -75.793762    -11.524715
  H      14.645128    -75.094875     -9.870077
  H      16.491535    -76.350982    -10.535427
  H      14.979558    -78.894030     -9.957939
  H      15.224754    -78.160752     -7.743658
  H      16.853173    -77.499227     -8.020499
  H      16.596621    -79.244486     -8.047539
  H      15.648505    -81.712853    -10.105213
  H      18.081713    -79.784506    -13.979349
  H      16.714715    -79.021750    -13.125848
  H      17.209202    -82.209723    -12.773889
  H      14.715712    -80.202227    -12.603545
  H      13.590030    -79.324852    -14.539540
  H      13.808561    -82.044470    -14.861832
  H      15.055327    -83.043686    -13.135540
  H      11.819451    -82.244966    -13.161938
  H      11.870684    -80.929595    -14.368650
  H      11.320354    -79.183167     -8.139298
  H      10.870577    -75.697432    -13.996734
  H      12.440782    -83.960154     -8.221315
  H      14.028665    -83.230702     -8.059831
  H      13.564547    -84.004716     -9.584124
  H      13.180160    -81.602432     -6.505577
  H      11.583184    -82.330022     -6.638841
  H      11.741564    -80.599695     -6.308365
  H      16.354362    -80.939909    -15.027068
  H      13.032181    -82.573421    -11.282091
  N      15.068703    -76.140003    -12.633525
  C      14.539448    -76.144317    -13.979996
  H      15.692492    -75.386215    -12.391984
  H      15.304141    -75.797773    -14.672367
  H      14.262510    -77.163834    -14.242815
  H      13.663653    -75.497990    -14.061784
>
75
Coordinates from ORCA-job /home/esp/scriptDevelopment/drFrankenstein/outputs/torsion_8-7-10-11/conformer_1_forwards/orca_scan Relaxed Surface Scan Step 7 E -133.305370717920
  C      13.972836    -74.692900    -10.523735
  O      13.468752    -74.839774    -11.617659
  C      13.431607    -73.743006     -9.491019
  H      12.623957    -74.265511     -8.979035
  H      14.185297    -73.438500     -8.771131
  H      13.006516    -72.872446     -9.982639
  N      15.102295    -75.357001    -10.156261
  C      15.551160    -76.563191    -10.826944
  C      14.946049    -76.607816    -12.252286
  O      14.186684    -77.502906    -12.577174
  C      15.160015    -77.853328    -10.059936
  C      14.357054    -77.646862     -8.784285
  O      16.332381    -78.618238     -9.792843
  O      17.341664    -80.026038    -11.703316
  O      17.279509    -80.958018     -9.408216
  O      15.036539    -80.560216    -10.653296
  C      16.990715    -79.450061    -12.948770
  C      14.734973    -80.398092    -13.683188
  O      16.832857    -81.770725    -13.574797
  C      14.040460    -81.770734    -13.501304
  O      14.266694    -79.770069    -14.844570
  C      12.532596    -81.596838    -13.240075
  O      14.614418    -82.518734    -12.441257
  N      12.240049    -80.837332    -12.038815
  C      12.240974    -81.416225    -10.792273
  C      11.994786    -79.499772    -12.177054
  P      16.521725    -80.107104    -10.307389
  C      12.012038    -80.586655     -9.662622
  C      11.798952    -78.738560    -10.964606
  C      12.457326    -82.777752    -10.568171
  N      11.960409    -78.981965    -13.373521
  C      12.018784    -81.143515     -8.375328
  C      12.469517    -83.309364     -9.294640
  C      11.764948    -77.643677    -13.543083
  C      11.629954    -77.270397    -11.107472
  C      12.247280    -82.481344     -8.172040
  C      12.730595    -84.768087     -9.105229
  C      12.271084    -83.051724     -6.790016
  C      16.282787    -80.493576    -13.837922
  N      11.813485    -79.258168     -9.780747
  N      11.511512    -76.864902    -12.399367
  O      11.784502    -77.121373    -14.630871
  O      11.600068    -76.506267    -10.164111
  H      15.416943    -75.260123     -9.202670
  H      16.645368    -76.531741    -10.910871
  H      14.516260    -78.424151    -10.737531
  H      13.440000    -77.104675     -8.996875
  H      14.941966    -77.126232     -8.027787
  H      14.094877    -78.625772     -8.391394
  H      14.948591    -81.414109    -11.131983
  H      17.943122    -79.159978    -13.404424
  H      16.366407    -78.565399    -12.836424
  H      17.437148    -81.666329    -12.821561
  H      14.506880    -79.780724    -12.809172
  H      13.453791    -79.276013    -14.629989
  H      14.145325    -82.325178    -14.444318
  H      15.533407    -82.689474    -12.727283
  H      12.064855    -82.578972    -13.167652
  H      12.101945    -81.044199    -14.077087
  H      11.842695    -80.471257     -7.550313
  H      11.517490    -75.860553    -12.552313
  H      11.899394    -85.242680     -8.585199
  H      13.623804    -84.913277     -8.499395
  H      12.875642    -85.265126    -10.060072
  H      13.248008    -83.482091     -6.574363
  H      11.529081    -83.842146     -6.685300
  H      12.062868    -82.279773     -6.054877
  H      16.476591    -80.257684    -14.892238
  H      12.655671    -83.439052    -11.394188
  N      15.522750    -75.768440    -13.129626
  C      14.978334    -75.600058    -14.460508
  H      16.031505    -74.980125    -12.758060
  H      15.793589    -75.452299    -15.167117
  H      14.421000    -76.497889    -14.719277
  H      14.296892    -74.748718    -14.496123
>
75
Coordinates from ORCA-job /home/esp/scriptDevelopment/drFrankenstein/outputs/torsion_8-7-10-11/conformer_1_forwards/orca_scan Relaxed Surface Scan Step 8 E -133.315371818750
  C      15.478923    -74.405113     -9.293271
  O      14.325649    -74.066683     -9.096746
  C      16.603636    -73.981010     -8.372965
  H      17.075801    -74.855732     -7.930350
  H      17.353000    -73.420699     -8.927337
  H      16.200040    -73.354143     -7.582982
  N      15.914440    -75.139258    -10.340820
  C      15.206981    -75.935512    -11.331302
  C      14.041770    -75.332742    -12.151074
  O      13.894218    -75.725701    -13.296700
  C      14.750639    -77.299847    -10.771485
  C      13.882681    -77.227502     -9.531141
  O      15.946634    -78.037640    -10.439087
  O      16.222322    -78.994206    -12.715476
  O      17.457238    -80.078079    -10.732035
  O      14.881111    -80.219250    -10.920023
  C      17.028884    -79.685102    -13.657427
  C      15.144436    -81.316129    -13.870799
  O      17.296964    -81.933927    -12.744367
  C      14.569701    -82.591060    -13.204971
  O      14.815447    -81.301207    -15.233865
  C      13.028468    -82.552323    -13.217439
  O      15.003459    -82.735058    -11.863689
  N      12.495589    -81.554286    -12.308708
  C      12.268343    -81.821317    -10.980403
  C      12.279944    -80.300122    -12.801204
  P      16.225325    -79.401829    -11.153263
  C      11.797529    -80.765872    -10.152670
  C      11.841189    -79.285603    -11.872562
  C      12.478869    -83.070074    -10.391519
  N      12.502543    -80.079788    -14.068490
  C      11.540993    -81.008212     -8.794546
  C      12.225177    -83.291151     -9.053078
  C      12.405018    -78.823358    -14.588034
  C      11.726367    -77.897183    -12.392949
  C      11.740168    -82.245431     -8.235150
  C      12.470824    -84.643106     -8.466862
  C      11.460673    -82.482294     -6.785376
  C      16.689401    -81.176948    -13.772447
  N      11.615654    -79.515470    -10.620187
  N      12.026684    -77.790219    -13.719115
  O      12.651929    -78.591651    -15.746293
  O      11.415446    -76.947159    -11.708909
  H      16.889911    -75.395224    -10.292881
  H      15.956111    -76.177034    -12.096882
  H      14.225050    -77.821950    -11.573792
  H      12.948836    -76.723635     -9.767560
  H      14.394284    -76.701957     -8.730697
  H      13.658284    -78.238590     -9.200175
  H      14.938068    -81.181873    -11.129775
  H      18.083562    -79.579551    -13.383648
  H      16.837126    -79.187241    -14.610149
  H      17.552776    -81.342006    -12.007174
  H      14.704738    -80.453801    -13.366022
  H      14.013821    -80.766963    -15.361286
  H      14.890305    -83.457118    -13.800555
  H      15.982120    -82.785543    -11.917143
  H      12.631920    -83.529610    -12.945903
  H      12.699304    -82.288806    -14.224107
  H      11.183225    -80.176001     -8.209102
  H      12.125553    -76.847016    -14.088000
  H      11.551405    -85.050024     -8.047710
  H      13.198775    -84.578618     -7.659529
  H      12.846935    -85.331765     -9.217886
  H      12.365361    -82.797979     -6.267691
  H      10.716808    -83.268050     -6.660928
  H      11.090356    -81.575958     -6.315374
  H      17.096514    -81.555392    -14.718738
  H      12.876514    -83.884648    -10.972762
  N      13.270822    -74.436768    -11.551024
  C      12.105925    -73.878740    -12.195821
  H      13.414777    -74.239599    -10.558644
  H      11.990789    -72.839760    -11.892848
  H      12.242590    -73.937002    -13.274830
  H      11.215331    -74.445782    -11.919242
>
75
Coordinates from ORCA-job /home/esp/scriptDevelopment/drFrankenstein/outputs/torsion_8-7-10-11/conformer_1_forwards/orca_scan Relaxed Surface Scan Step 9 E -133.316361009730
  C      16.466263    -74.681272    -11.041126
  O      15.928480    -73.889287    -10.285471
  C      17.967189    -74.795912    -11.154103
  H      18.277775    -75.748656    -10.727330