
Host: MONSTER

Timers On : Wed Feb  5 15:50:50 2025
Timers Off: Wed Feb  5 15:50:50 2025

Wall Time:        0.66 seconds

                                                       Time (seconds)
Module                                       User      System        Wall        Calls

--------------------------------------------------------------------------------------

**************************************************************************************

Host: MONSTER

Timers On : Wed Feb  5 16:26:18 2025
Timers Off: Wed Feb  5 16:26:18 2025

Wall Time:        0.30 seconds

                                                       Time (seconds)
Module                                       User      System        Wall        Calls

--------------------------------------------------------------------------------------

**************************************************************************************

Host: MONSTER

Timers On : Wed Feb  5 16:43:23 2025
Timers Off: Wed Feb  5 16:43:24 2025

Wall Time:        0.36 seconds

                                                       Time (seconds)
Module                                       User      System        Wall        Calls

--------------------------------------------------------------------------------------

**************************************************************************************

Host: MONSTER

Timers On : Wed Feb  5 16:44:16 2025
Timers Off: Wed Feb  5 16:44:16 2025

Wall Time:        0.19 seconds

                                                       Time (seconds)
Module                                       User      System        Wall        Calls

--------------------------------------------------------------------------------------

**************************************************************************************

Host: MONSTER

Timers On : Wed Feb  5 16:47:59 2025
Timers Off: Wed Feb  5 16:47:59 2025

Wall Time:        0.24 seconds

                                                       Time (seconds)
Module                                       User      System        Wall        Calls

--------------------------------------------------------------------------------------

**************************************************************************************

Host: MONSTER

Timers On : Thu Feb  6 10:32:30 2025
Timers Off: Thu Feb  6 10:32:31 2025

Wall Time:        0.26 seconds

                                                       Time (seconds)
Module                                       User      System        Wall        Calls

--------------------------------------------------------------------------------------

**************************************************************************************
