
                                 *****************
                                 * O   R   C   A *
                                 *****************

                                            #,                                       
                                            ###                                      
                                            ####                                     
                                            #####                                    
                                            ######                                   
                                           ########,                                 
                                     ,,################,,,,,                         
                               ,,#################################,,                 
                          ,,##########################################,,             
                       ,#########################################, ''#####,          
                    ,#############################################,,   '####,        
                  ,##################################################,,,,####,       
                ,###########''''           ''''###############################       
              ,#####''   ,,,,##########,,,,          '''####'''          '####       
            ,##' ,,,,###########################,,,                        '##       
           ' ,,###''''                  '''############,,,                           
         ,,##''                                '''############,,,,        ,,,,,,###''
      ,#''                                            '''#######################'''  
     '                                                          ''''####''''         
             ,#######,   #######,   ,#######,      ##                                
            ,#'     '#,  ##    ##  ,#'     '#,    #''#        ,####,    ,#,          
            ##       ##  ##   ,#'  ##            #'  '#       #'       ,# #          
            ##       ##  #######   ##           ,######,      #####,      #          
            '#,     ,#'  ##    ##  '#,     ,#' ,#      #,     #,   #      #          
             '#######'   ##     ##  '#######'  #'      '#     '####' #    #          



                #########################################################
                #                        -***-                          #
                #          Department of theory and spectroscopy        #
                #                                                       #
                #                      Frank Neese                      #
                #                                                       #
                #     Directorship, Architecture, Infrastructure        #
                #                    SHARK, DRIVERS                     #
                #        Core code/Algorithms in most modules           #
                #                                                       #
                #        Max Planck Institute fuer Kohlenforschung      #
                #                Kaiser Wilhelm Platz 1                 #
                #                 D-45470 Muelheim/Ruhr                 #
                #                      Germany                          #
                #                                                       #
                #                  All rights reserved                  #
                #                        -***-                          #
                #########################################################


                         Program Version 6.1.0  -  RELEASE   -
                                (GIT: $679e74b$)
                          ($2025-06-10 18:02:51 +0200$)


 With contributions from (in alphabetic order):
[Max-Planck-Institut fuer Kohlenforschung]                               
  Daniel Aravena         : Magnetic Suceptibility                        
  Michael Atanasov       : Ab Initio Ligand Field Theory (pilot matlab implementation)
  Alexander A. Auer      : GIAO ZORA, VPT2 properties, NMR spectrum      
  Ute Becker             : All parallelization in ORCA, NUMFREQ, NUMCALC 
  Giovanni Bistoni       : ED, misc. LED, open-shell LED, HFLD           
  Dmytro Bykov           : pre 5.0 version of the SCF Hessian            
  Marcos Casanova-Páez   : Triplet and SCS-CIS(D). UHF-(DLPNO)-IP/EA/STEOM-CCSD. UHF-CVS-IP/STEOM-CCSD   
  Vijay G. Chilkuri      : MRCI spin determinant printing, contributions to CSF-ICE 
  Pauline Colinet        : FMM embedding                                 
  Dipayan Datta          : RHF DLPNO-CCSD density                        
  Achintya Kumar Dutta   : EOM-CC, STEOM-CC                              
  Nicolas Foglia         : Exact transition moments, OPA infrastructure, MCD improvements    
  Dmitry Ganyushin       : Spin-Orbit,Spin-Spin,Magnetic field MRCI      
  Miquel Garcia-Rates    : C-PCM and meta-GGA Hessian, CCSD/C-PCM, Gaussian charge scheme 
  Tiago L. C. Gouveia    : GS-ROHF, GS-ROCIS                             
  Yang Guo               : DLPNO-NEVPT2, F12-NEVPT2, CIM, IAO-localization        
  Andreas Hansen         : Spin unrestricted coupled pair/coupled cluster methods 
  Ingolf Harden          : AUTO-CI MPn and infrastructure                
  Benjamin Helmich-Paris : MC-RPA, TRAH-(SCF,CASSCF), AVAS, COSX integrals, SCF dyn. polar., MC-PDFT, srDFT 
  Lee Huntington         : MR-EOM, pCC                                   
  Robert Izsak           : Overlap fitted RIJCOSX, COSX-SCS-MP3, EOM     
  Riya Kayal             : Wick's Theorem for AUTO-CI, AUTO-CI UHF-CCSDT 
  Emily Kempfer          : AUTO-CI RHF CISDT and CCSDT, approximate NEVPT4
  Christian Kollmar      : KDIIS, OOCD, Brueckner-CCSD(T), CCSD density, CASPT2, CASPT2-K, improved NEVPT2 
  Axel Koslowski         : Symmetry handling                             
  Simone Kossmann        : meta-GGA functionals, TD-DFT gradient, OOMP2, (MP2 Hessian; deprecated post 5.0) 
  Lucas Lang             : DCDCAS, Hyperfine gauge corrections, ICE-SOC+SSC
  Marvin Lechner         : AUTO-CI (C++ implementation), FIC-MRCC        
  Spencer Leger          : CASSCF response                               
  Dagmar Lenk            : GEPOL surface, SMD, ORCA-2-JSON               
  Dimitrios Liakos       : Extrapolation schemes; Compound Job, Property file
  Dimitrios Manganas     : Further ROCIS development; embedding schemes. LFT, Crystal Embedding 
  Dimitrios Pantazis     : SARC Basis sets                               
  Anastasios Papadopoulos: AUTO-CI, single reference methods and gradients 
  Taras Petrenko         : pre 6.0 DFT Hessian and TD-DFT gradient,  ECA, NRVS 
  Petra Pikulova         : Analytic Raman intensities                    
  Peter Pinski           : DLPNO-MP2, DLPNO-MP2 Gradient                 
  Shashank Vittal Rao    : ES-AILFT, MagRelax                            
  Christoph Reimann      : Effective Core Potentials                     
  Marius Retegan         : Local ZFS, SOC                                
  Christoph Riplinger    : Optimizer, TS searches, QM/MM, DLPNO-CCSD(T), (RO)-DLPNO pert. Triples 
  Michael Roemelt        : Original ROCIS implementation, recursive CI coupling coefficients
  Masaaki Saitow         : Open-shell DLPNO-CCSD energy and density      
  Barbara Sandhoefer     : DKH picture change effects                    
  Yorick L. A. Schmerwitz: GMF and freeze-and-release deltaSCF, NEB S-IDPP initial path                    
  Kantharuban Sivalingam : CASSCF convergence/infrastructure, NEVPT2, NEVPT3, NEVPT4(SD), FIC-MRCI and CEPA variants
  Bernardo de Souza      : ESD, SOC TD-DFT                               
  Georgi L. Stoychev     : AutoAux, RI-MP2 NMR, DLPNO-MP2 response, X2C  
  Van Anh Tran           : RI-MP2 g-tensors                              
  Willem Van den Heuvel  : Paramagnetic NMR                              
  Zikuan Wang            : NOTCH, Electric field optimization            
  Frank Wennmohs         : Technical directorship and infrastructure     
  Hang Xu                : AUTO-CI-Response properties                   
                                                                         
[FACCTs GmbH]                                                            
  Markus Bursch, Nicolas Foglia, Miquel Garcia-Rates, Ingolf Harden, Hagen Neugebauer, Anastasios Papadopoulos, 
  Christoph Riplinger, Bernardo de Souza, Georgi L. Stoychev                                                    
                                                                 
  APM, various basis sets, CI-OPT, improved COSX, DLPNO-Multilevel,           
  DOCKER, DRACO, updates on ESD, Fragmentator, GOAT, IRC, LR-CPCM, L-BFGS, MBIS, meta-GGA TD-DFT gradient, ML-optimized integration grids, 
  MM, NACMEs, nearIR, NEB, NEB-TS, NL-DFT gradient (VV10), 2- and 3-layer-ONIOM, interface openCOSMO-RS, QMMM,   
  Crystal-QMMM, RESP, rigid body optimization, SF, symmetry and pop. for TD-DFT, various functionals, SOLVATOR                                   
                                                                         
[Other institutions]                                                     
  V. Asgeirsson          : NEB                                           
  Christoph Bannwarth    : sTDA-DFT, sTD-DFT, PBEh-3c, B97-3c, D3        
  Giovanni Bistoni       : ETS/NOCV, ADLD/ADEX, COVALED                  
  Martin Brehm           : Molecular dynamics                            
  Ronald Cardenas        : ETS/NOCV                                      
  Martina Colucci        : COVALED                                       
  Sebastian Ehlert       : rSCAN, r2SCAN, r2SCAN-3c, D4, dhf basis sets  
  Marvin Friede          : D4 for Fr, Ra, Ac-Lr                          
  Lars Goerigk           : TD-DFT with DH, B97 family of functionals     
  Stefan Grimme          : VdW corrections, initial TS optimization, DFT functionals, gCP, sTDA/sTD-DF 
  Waldemar Hujo          : DFT-NL                                        
  H. Jonsson             : NEB                                           
  Holger Kruse           : gCP                                           
  Marcel Mueller         : wB97X-3c, vDZP basis set                      
  Hagen Neugebauer       : wr2SCAN, Native XTB                           
  Gianluca Regni         : ADLD/ADEX                                     
  Tobias Risthaus        : pre 6.0 range-separated hybrid DFT and stability analysis
  Lukas Wittmann         : regularized MP2, r2SCAN double-hybrids, wr2SCAN        
                                                                         
We gratefully acknowledge several colleagues who have allowed us to      
interface, adapt or use parts of their codes:                            
  Ed Valeev, F. Pavosevic, A. Kumar             : LibInt (2-el integral package), F12 methods 
  Garnet Chan, S. Sharma, J. Yang, R. Olivares  : DMRG                   
  Ulf Ekstrom                                   : XCFun DFT Library      
  Mihaly Kallay                                 : mrcc  (arbitrary order and MRCC methods)
  Frank Weinhold                                : gennbo (NPA and NBO analysis)           
  Simon Mueller                                 : openCOSMO-RS                            
  Christopher J. Cramer and Donald G. Truhlar   : smd solvation model                     
  S Lehtola, MJT Oliveira, MAL Marques          : LibXC Library                           
  Liviu Ungur et al                             : ANISO software                          


 Your calculation uses the libint2 library for the computation of 2-el integrals
 For citations please refer to: http://libint.valeyev.net

 Your ORCA version has been built with support for libXC version: 7.0.0
 For citations please refer to: https://libxc.gitlab.io

 This ORCA versions uses:
   CBLAS   interface :  Fast vector & matrix operations
   LAPACKE interface :  Fast linear algebra routines
   SCALAPACK package :  Parallel linear algebra routines
   Shared memory     :  Shared parallel matrices
   BLAS/LAPACK       :  OpenBLAS 0.3.29  USE64BITINT DYNAMIC_ARCH NO_AFFINITY Haswell SINGLE_THREADED
        Core in use  :  Haswell
   Copyright (c) 2011-2014, The OpenBLAS Project


  ***********************************
  * Starting time: Wed Jul 16 15:48:04 2025
  * Host name:     MONSTER
  * Process ID:    442519
  * Working dir.:  /home/esp/scriptDevelopment/drFrankenstein
  ***********************************



***************************************
The coordinates will be read from file: /home/esp/scriptDevelopment/drFrankenstein/11_PCY_CHARMM/03_GOAT_conformers/PCY_conformer_24.xyz
***************************************


Your calculation utilizes the semiempirical GFN2-xTB method
Please cite in your paper:
Bannwarth, C.; Ehlert S.; Grimme, S. J. Chem. Theory Comput. 2019, 15, 1652.
   

================================================================================

================================================================================
                                        WARNINGS
                       Please study these warnings very carefully!
================================================================================


WARNING: Geometry Optimization
  ===> : Switching off AutoStart
         For restart on a previous wavefunction, please use MOREAD

WARNING: Found dipole moment calculation with XTB calculation
  ===> : Switching off dipole moment calculation


================================================================================
                                       INPUT FILE
================================================================================
NAME = /home/esp/scriptDevelopment/drFrankenstein/11_PCY_CHARMM/04_torsion_scanning/torsion_NH1-CT1-CG321-CG2R61/scans_PCY_conformer_24/PCY_conformer_24_opt/orca_opt.inp
|  1>  # --------------------------------- #
|  2>  #  Geometry Optimisation            #
|  3>  # --------------------------------- #
|  4> ! XTB2 ALPB(water) Opt
|  5> *xyzfile 0 1 /home/esp/scriptDevelopment/drFrankenstein/11_PCY_CHARMM/03_GOAT_conformers/PCY_conformer_24.xyz
|  6> 
|  7> 
|  8>                          ****END OF INPUT****
================================================================================

                       *****************************
                       * Geometry Optimization Run *
                       *****************************

Geometry optimization settings:
Update method            Update   .... BFGS
Choice of coordinates    CoordSys .... (2022) Redundant Internals
Initial Hessian          InHess   .... Almloef's Model
Max. no of cycles        MaxIter  .... 141

Convergence Tolerances:
Energy Change            TolE     ....  5.0000e-06 Eh
Max. Gradient            TolMAXG  ....  3.0000e-04 Eh/bohr
RMS Gradient             TolRMSG  ....  1.0000e-04 Eh/bohr
Max. Displacement        TolMAXD  ....  4.0000e-03 bohr
RMS Displacement         TolRMSD  ....  2.0000e-03 bohr
Strict Convergence                .... False

------------------------------------------------------------------------------
                        ORCA OPTIMIZATION COORDINATE SETUP
------------------------------------------------------------------------------

The optimization will be done in redundant internal coordinates (2022)
Making redundant internal coordinates   ...  (2022 redundants) done
Evaluating the initial hessian          ...  (Almloef) done
Evaluating the coordinates              ...  done
Calculating the B-matrix                .... done
Calculating the G-matrix                .... done
The number of degrees of freedom        ....  227

    -----------------------------------------------------------------
                    Redundant Internal Coordinates


    -----------------------------------------------------------------
         Definition                    Initial Value    Approx d2E/dq
    -----------------------------------------------------------------
      1. B(N  13,H  11)                  1.0287         0.403980   
      2. B(C  14,N  13)                  1.3607         0.623154   
      3. B(C  15,C  14)                  1.4590         0.484907   
      4. B(C  16,H   3)                  1.0960         0.352286   
      5. B(C  16,C  14)                  1.4885         0.435059   
      6. B(C  16,H   7)                  1.0930         0.356126   
      7. B(O  17,C  15)                  1.2384         0.976642   
      8. B(O  17,H  11)                  1.9395         0.014232   
      9. B(C  18,C  16)                  1.5082         0.404788   
     10. B(C  19,C  18)                  1.3914         0.621649   
     11. B(C  19,H   5)                  1.0808         0.372451   
     12. B(C  20,C  19)                  1.3792         0.650202   
     13. B(C  20,H   2)                  1.0787         0.375343   
     14. B(C  21,C  20)                  1.3933         0.617164   
     15. B(C  22,C  21)                  1.3897         0.625413   
     16. B(C  22,H   6)                  1.0791         0.374765   
     17. B(C  23,C  22)                  1.3820         0.643459   
     18. B(C  23,C  18)                  1.3886         0.627973   
     19. B(C  23,H   9)                  1.0801         0.373484   
     20. B(O  24,C  21)                  1.3651         0.613148   
     21. B(C  25,O  24)                  1.4164         0.507926   
     22. B(C  25,H   4)                  1.0971         0.350860   
     23. B(C  25,H   0)                  1.0956         0.352761   
     24. B(C  26,C  25)                  1.5076         0.405607   
     25. B(C  27,C  26)                  1.3872         0.631363   
     26. B(C  27,H   1)                  1.0796         0.374099   
     27. B(C  28,C  27)                  1.3851         0.636181   
     28. B(C  28,H  12)                  1.0792         0.374677   
     29. B(C  29,C  28)                  1.3859         0.634376   
     30. B(C  29,H   8)                  1.0787         0.375414   
     31. B(C  30,C  29)                  1.3810         0.645860   
     32. B(C  30,H  10)                  1.0796         0.374150   
     33. B(C  31,C  30)                  1.3902         0.624361   
     34. B(C  31,C  26)                  1.3979         0.606981   
     35. B(N  32,C  31)                  1.4386         0.468089   
     36. B(O  33,N  32)                  1.2151         0.952790   
     37. B(O  34,N  32)                  1.2196         0.937428   
     38. B(N  36,C  35)                  1.4412         0.463656   
     39. B(N  36,C  15)                  1.3520         0.643464   
     40. B(H  37,N  36)                  1.0078         0.436202   
     41. B(H  38,O  34)                  2.4791         0.010000   
     42. B(H  38,C  35)                  1.0917         0.357838   
     43. B(H  39,C  35)                  1.0914         0.358273   
     44. B(H  40,C  35)                  1.0884         0.362252   
     45. B(C  41,N  13)                  1.3703         0.601701   
     46. B(O  42,C  41)                  1.2166         1.057969   
     47. B(C  43,C  41)                  1.5099         0.402223   
     48. B(H  44,C  43)                  1.0884         0.362206   
     49. B(H  45,C  43)                  1.0854         0.366182   
     50. B(H  46,C  43)                  1.0883         0.362352   
     51. A(H  11,N  13,C  41)          119.7917         0.352714   
     52. A(C  14,N  13,C  41)          131.7127         0.426504   
     53. A(H  11,N  13,C  14)          108.4833         0.354813   
     54. A(N  13,C  14,C  15)          110.8736         0.413082   
     55. A(N  13,C  14,C  16)          123.3053         0.405222   
     56. A(C  15,C  14,C  16)          125.7911         0.390248   
     57. A(O  17,C  15,N  36)          123.0748         0.468353   
     58. A(C  14,C  15,O  17)          118.9518         0.447775   
     59. A(C  14,C  15,N  36)          117.9428         0.415443   
     60. A(H   3,C  16,H   7)          107.3720         0.289336   
     61. A(H   3,C  16,C  14)          109.8204         0.331369   
     62. A(C  14,C  16,C  18)          111.6394         0.378183   
     63. A(H   3,C  16,C  18)          109.3353         0.327445   
     64. A(H   7,C  16,C  14)          108.2045         0.331964   
     65. A(H   7,C  16,C  18)          110.3701         0.328031   
     66. A(C  16,C  18,C  23)          120.1003         0.403231   
     67. A(C  19,C  18,C  23)          118.5528         0.435274   
     68. A(C  16,C  18,C  19)          121.3249         0.402512   
     69. A(C  18,C  19,C  20)          120.7520         0.438011   
     70. A(H   5,C  19,C  18)          119.9097         0.355091   
     71. A(H   5,C  19,C  20)          119.3264         0.357809   
     72. A(H   2,C  20,C  21)          118.7290         0.355121   
     73. A(C  19,C  20,C  21)          120.1882         0.437439   
     74. A(H   2,C  20,C  19)          121.0594         0.358280   
     75. A(C  22,C  21,O  24)          124.7341         0.431039   
     76. A(C  20,C  21,O  24)          115.8556         0.430013   
     77. A(C  20,C  21,C  22)          119.4050         0.434387   
     78. A(C  21,C  22,C  23)          119.7733         0.437664   
     79. A(H   6,C  22,C  23)          119.3026         0.357552   
     80. A(H   6,C  22,C  21)          120.9234         0.355829   
     81. A(C  18,C  23,C  22)          121.1875         0.437987   
     82. A(H   9,C  23,C  22)          119.3933         0.357344   
     83. A(H   9,C  23,C  18)          119.4158         0.355869   
     84. A(C  21,O  24,C  25)          119.4003         0.412619   
     85. A(H   0,C  25,H   4)          109.2169         0.288722   
     86. A(O  24,C  25,C  26)          107.6739         0.386169   
     87. A(H   4,C  25,C  26)          110.0106         0.327335   
     88. A(H   0,C  25,C  26)          109.3700         0.327627   
     89. A(H   4,C  25,O  24)          109.6300         0.337721   
     90. A(H   0,C  25,O  24)          110.9233         0.338025   
     91. A(C  27,C  26,C  31)          117.8711         0.433827   
     92. A(C  25,C  26,C  31)          120.8609         0.400964   
     93. A(C  25,C  26,C  27)          121.1432         0.403758   
     94. A(C  26,C  27,C  28)          121.1796         0.437514   
     95. A(H   1,C  27,C  28)          119.7837         0.356754   
     96. A(H   1,C  27,C  26)          119.0354         0.356293   
     97. A(C  27,C  28,C  29)          120.2732         0.437889   
     98. A(H  12,C  28,C  29)          120.0446         0.356675   
     99. A(H  12,C  28,C  27)          119.6739         0.356847   
    100. A(C  28,C  29,C  30)          119.5864         0.439084   
    101. A(H   8,C  29,C  30)          119.9853         0.357884   
    102. A(H   8,C  29,C  28)          120.4281         0.356794   
    103. A(C  29,C  30,C  31)          119.8977         0.437825   
    104. A(H  10,C  30,C  31)          118.7279         0.355628   
    105. A(H  10,C  30,C  29)          121.3716         0.357679   
    106. A(C  30,C  31,N  32)          116.9381         0.410644   
    107. A(C  26,C  31,N  32)          121.9015         0.408595   
    108. A(C  26,C  31,C  30)          121.1586         0.432958   
    109. A(O  33,N  32,O  34)          124.2306         0.492904   
    110. A(C  31,N  32,O  34)          118.3209         0.435797   
    111. A(C  31,N  32,O  33)          117.3901         0.437075   
    112. A(N  36,C  35,H  38)          110.1735         0.333728   
    113. A(H  39,C  35,H  40)          109.5799         0.290879   
    114. A(H  38,C  35,H  40)          109.8666         0.290824   
    115. A(N  36,C  35,H  40)          107.9528         0.334408   
    116. A(H  38,C  35,H  39)          109.1074         0.290320   
    117. A(N  36,C  35,H  39)          110.1471         0.333795   
    118. A(C  35,N  36,H  37)          116.5594         0.341964   
    119. A(C  15,N  36,H  37)          119.1662         0.361441   
    120. A(C  15,N  36,C  35)          122.2000         0.409490   
    121. A(O  42,C  41,C  43)          123.0362         0.439194   
    122. A(N  13,C  41,C  43)          113.4438         0.397201   
    123. A(N  13,C  41,O  42)          123.5200         0.469460   
    124. A(H  45,C  43,H  46)          109.5960         0.291892   
    125. A(H  44,C  43,H  46)          107.3433         0.291391   
    126. A(C  41,C  43,H  46)          108.8353         0.328625   
    127. A(H  44,C  43,H  45)          109.5858         0.291874   
    128. A(C  41,C  43,H  45)          112.4321         0.329196   
    129. A(C  41,C  43,H  44)          108.9126         0.328603   
    130. D(C  16,C  14,N  13,C  41)      0.1196         0.031469   
    131. D(C  15,C  14,N  13,C  41)   -177.9935         0.031469   
    132. D(C  16,C  14,N  13,H  11)    178.8032         0.031469   
    133. D(C  15,C  14,N  13,H  11)      0.6901         0.031469   
    134. D(N  36,C  15,C  14,N  13)   -177.6552         0.016009   
    135. D(O  17,C  15,C  14,C  16)   -177.6607         0.016009   
    136. D(N  36,C  15,C  14,C  16)      4.2889         0.016009   
    137. D(O  17,C  15,C  14,N  13)      0.3952         0.016009   
    138. D(H   7,C  16,C  14,C  15)    169.1150         0.013972   
    139. D(C  18,C  16,C  14,N  13)   -130.3580         0.013972   
    140. D(H   3,C  16,C  14,C  15)    -73.9724         0.013972   
    141. D(H   3,C  16,C  14,N  13)    108.2012         0.013972   
    142. D(H   7,C  16,C  14,N  13)     -8.7114         0.013972   
    143. D(C  19,C  18,C  16,H   3)     -8.1275         0.012148   
    144. D(C  19,C  18,C  16,H   7)    109.7651         0.012148   
    145. D(C  19,C  18,C  16,C  14)   -129.8490         0.012148   
    146. D(C  23,C  18,C  16,H   7)    -71.9658         0.012148   
    147. D(C  23,C  18,C  16,H   3)    170.1416         0.012148   
    148. D(C  20,C  19,C  18,C  16)    175.6097         0.026750   
    149. D(H   5,C  19,C  18,C  23)    178.5788         0.026750   
    150. D(C  20,C  19,C  18,C  23)     -2.6855         0.026750   
    151. D(H   5,C  19,C  18,C  16)     -3.1261         0.026750   
    152. D(C  21,C  20,C  19,C  18)     -0.2644         0.029437   
    153. D(C  21,C  20,C  19,H   5)    178.4786         0.029437   
    154. D(H   2,C  20,C  19,C  18)   -178.4845         0.029437   
    155. D(H   2,C  20,C  19,H   5)      0.2585         0.029437   
    156. D(O  24,C  21,C  20,C  19)   -177.4497         0.026342   
    157. D(O  24,C  21,C  20,H   2)      0.8116         0.026342   
    158. D(C  22,C  21,C  20,C  19)      3.3474         0.026342   
    159. D(C  22,C  21,C  20,H   2)   -178.3913         0.026342   
    160. D(H   6,C  22,C  21,C  20)    176.8656         0.027095   
    161. D(C  23,C  22,C  21,O  24)    177.4377         0.027095   
    162. D(C  23,C  22,C  21,C  20)     -3.4353         0.027095   
    163. D(H   6,C  22,C  21,O  24)     -2.2615         0.027095   
    164. D(C  18,C  23,C  22,C  21)      0.4595         0.028788   
    165. D(C  18,C  23,C  22,H   6)   -179.8365         0.028788   
    166. D(H   9,C  23,C  22,C  21)   -178.8629         0.028788   
    167. D(H   9,C  23,C  22,H   6)      0.8411         0.028788   
    168. D(C  22,C  23,C  18,C  19)      2.5937         0.027331   
    169. D(C  22,C  23,C  18,C  16)   -175.7230         0.027331   
    170. D(H   9,C  23,C  18,C  19)   -178.0840         0.027331   
    171. D(H   9,C  23,C  18,C  16)      3.5993         0.027331   
    172. D(C  25,O  24,C  21,C  22)    -26.0108         0.027539   
    173. D(C  25,O  24,C  21,C  20)    154.8343         0.027539   
    174. D(C  26,C  25,O  24,C  21)   -134.6879         0.020417   
    175. D(H   4,C  25,O  24,C  21)    105.6452         0.020417   
    176. D(H   0,C  25,O  24,C  21)    -15.0514         0.020417   
    177. D(C  31,C  26,C  25,H   4)    172.3488         0.012195   
    178. D(C  31,C  26,C  25,H   0)    -67.6945         0.012195   
    179. D(C  27,C  26,C  25,O  24)   -122.9273         0.012195   
    180. D(C  27,C  26,C  25,H   4)     -3.5024         0.012195   
    181. D(C  27,C  26,C  25,H   0)    116.4542         0.012195   
    182. D(C  28,C  27,C  26,C  31)      0.3726         0.027646   
    183. D(C  28,C  27,C  26,C  25)    176.3442         0.027646   
    184. D(H   1,C  27,C  26,C  31)   -179.2099         0.027646   
    185. D(H   1,C  27,C  26,C  25)     -3.2384         0.027646   
    186. D(C  29,C  28,C  27,C  26)     -1.5090         0.028097   
    187. D(C  29,C  28,C  27,H   1)    178.0704         0.028097   
    188. D(H  12,C  28,C  27,C  26)    179.5420         0.028097   
    189. D(H  12,C  28,C  27,H   1)     -0.8785         0.028097   
    190. D(C  30,C  29,C  28,H  12)    179.8970         0.027928   
    191. D(H   8,C  29,C  28,C  27)   -178.9085         0.027928   
    192. D(H   8,C  29,C  28,H  12)      0.0366         0.027928   
    193. D(C  30,C  29,C  28,C  27)      0.9519         0.027928   
    194. D(C  31,C  30,C  29,C  28)      0.7105         0.029018   
    195. D(C  31,C  30,C  29,H   8)   -179.4285         0.029018   
    196. D(H  10,C  30,C  29,C  28)   -179.9067         0.029018   
    197. D(H  10,C  30,C  29,H   8)     -0.0456         0.029018   
    198. D(N  32,C  31,C  30,C  29)    177.6524         0.026998   
    199. D(N  32,C  31,C  30,H  10)     -1.7467         0.026998   
    200. D(C  26,C  31,C  30,C  29)     -1.8672         0.026998   
    201. D(C  26,C  31,C  30,H  10)    178.7337         0.026998   
    202. D(N  32,C  31,C  26,C  27)   -178.1838         0.025431   
    203. D(N  32,C  31,C  26,C  25)      5.8328         0.025431   
    204. D(C  30,C  31,C  26,C  27)      1.3118         0.025431   
    205. D(C  30,C  31,C  26,C  25)   -174.6716         0.025431   
    206. D(O  34,N  32,C  31,C  30)   -141.0194         0.017269   
    207. D(O  34,N  32,C  31,C  26)     38.4964         0.017269   
    208. D(O  33,N  32,C  31,C  30)     36.3199         0.017269   
    209. D(O  33,N  32,C  31,C  26)   -144.1643         0.017269   
    210. D(H  37,N  36,C  35,H  39)     69.8588         0.018357   
    211. D(H  37,N  36,C  35,H  38)    -50.5559         0.018357   
    212. D(C  15,N  36,C  35,H  40)     -7.0621         0.018357   
    213. D(C  15,N  36,C  35,H  39)   -126.6730         0.018357   
    214. D(C  15,N  36,C  35,H  38)    112.9123         0.018357   
    215. D(H  37,N  36,C  15,O  17)    172.8045         0.033731   
    216. D(H  37,N  36,C  15,C  14)     -9.2312         0.033731   
    217. D(C  35,N  36,C  15,O  17)      9.7508         0.033731   
    218. D(C  35,N  36,C  15,C  14)   -172.2849         0.033731   
    219. D(C  43,C  41,N  13,C  14)    178.9703         0.029185   
    220. D(C  43,C  41,N  13,H  11)      0.4089         0.029185   
    221. D(O  42,C  41,N  13,C  14)     -0.9668         0.029185   
    222. D(O  42,C  41,N  13,H  11)   -179.5281         0.029185   
    223. D(H  46,C  43,C  41,N  13)    122.0088         0.012001   
    224. D(H  45,C  43,C  41,O  42)   -179.6677         0.012001   
    225. D(H  45,C  43,C  41,N  13)      0.3950         0.012001   
    226. D(H  44,C  43,C  41,O  42)     58.6777         0.012001   
    227. D(H  44,C  43,C  41,N  13)   -121.2597         0.012001   
    -----------------------------------------------------------------

Number of atoms                         .... 47
Number of degrees of freedom            .... 227


         *************************************************************
         *                GEOMETRY OPTIMIZATION CYCLE   1            *
         *************************************************************
---------------------------------
CARTESIAN COORDINATES (ANGSTROEM)
---------------------------------
  H    -0.833350   -1.791200    0.729640
  H    -0.631690   -4.142520    3.195360
  H    -0.342180    1.876590    2.864920
  H     0.020210    4.715230   -0.812530
  H     0.366590   -2.521770    1.834890
  H    -0.115170    3.824800    1.371670
  H     0.642610   -0.719200   -0.383270
  H     1.424370    4.020050   -1.622620
  H    -4.394500   -3.467880    5.100440
  H     0.845100    1.210880   -1.862710
  H    -4.596120   -1.306500    3.896830
  H    -0.668220    3.479150   -4.473180
  H    -2.408890   -4.890160    4.716190
  N     0.065470    3.747380   -3.803870
  C    -0.409880    3.556450   -2.543260
  C    -1.770000    3.029430   -2.574820
  C     0.394280    3.817720   -1.318200
  O    -2.306230    2.819380   -3.671170
  C     0.348520    2.651040   -0.363580
  C     0.044310    2.829210    0.982390
  C    -0.082690    1.745660    1.826100
  C     0.087790    0.452460    1.336220
  C     0.455090    0.268640    0.008570
  C     0.577330    1.362320   -0.827380
  O    -0.110840   -0.555640    2.235020
  C    -0.489120   -1.838430    1.768690
  C    -1.612050   -2.331420    2.645540
  C    -1.510600   -3.531160    3.334400
  C    -2.509520   -3.948730    4.198260
  C    -3.623460   -3.153230    4.414870
  C    -3.741540   -1.949340    3.748690
  C    -2.752520   -1.551130    2.856560
  N    -2.964950   -0.311010    2.159020
  O    -3.509470    0.587560    2.769450
  O    -2.635620   -0.242800    0.986750
  C    -3.675640    2.165970   -1.308140
  N    -2.400190    2.831320   -1.395210
  H    -1.876390    2.915420   -0.538330
  H    -3.566820    1.209160   -0.793830
  H    -4.386950    2.786910   -0.760790
  H    -4.038440    2.002220   -2.321120
  C     1.280660    4.182420   -4.263920
  O     2.197910    4.508250   -3.534070
  C     1.374930    4.218030   -5.770440
  H     2.195280    3.576990   -6.087830
  H     0.455820    3.897380   -6.250650
  H     1.615790    5.232110   -6.083540

----------------------------
CARTESIAN COORDINATES (A.U.)
----------------------------
  NO LB    ZA    FRAG    MASS        X           Y           Z
   0 H   1.0000    0     1.008   -1.574803   -3.384877    1.378820
   1 H   1.0000    0     1.008   -1.193721   -7.828228    6.038355
   2 H   1.0000    0     1.008   -0.646626    3.546241    5.413914
   3 H   1.0000    0     1.008    0.038191    8.910493   -1.535459
   4 H   1.0000    0     1.008    0.692755   -4.765455    3.467440
   5 H   1.0000    0     1.008   -0.217640    7.227825    2.592081
   6 H   1.0000    0     1.008    1.214357   -1.359091   -0.724275
   7 H   1.0000    0     1.008    2.691669    7.596794   -3.066307
   8 H   1.0000    0     1.008   -8.304401   -6.553343    9.638435
   9 H   1.0000    0     1.008    1.597008    2.288232   -3.520012
  10 H   1.0000    0     1.008   -8.685408   -2.468927    7.363941
  11 H   1.0000    0     1.008   -1.262753    6.574641   -8.453085
  12 H   1.0000    0     1.008   -4.552142   -9.241063    8.912307
  13 N   7.0000    0    14.007    0.123720    7.081522   -7.188273
  14 C   6.0000    0    12.011   -0.774561    6.720717   -4.806065
  15 C   6.0000    0    12.011   -3.344815    5.724793   -4.865705
  16 C   6.0000    0    12.011    0.745081    7.214445   -2.491037
  17 O   8.0000    0    15.999   -4.358143    5.327856   -6.937506
  18 C   6.0000    0    12.011    0.658607    5.009740   -0.687067
  19 C   6.0000    0    12.011    0.083734    5.346432    1.856448
  20 C   6.0000    0    12.011   -0.156261    3.298819    3.450829
  21 C   6.0000    0    12.011    0.165899    0.855025    2.525090
  22 C   6.0000    0    12.011    0.859995    0.507656    0.016195
  23 C   6.0000    0    12.011    1.090996    2.574412   -1.563522
  24 O   8.0000    0    15.999   -0.209457   -1.050007    4.223576
  25 C   6.0000    0    12.011   -0.924303   -3.474129    3.342340
  26 C   6.0000    0    12.011   -3.046333   -4.405745    4.999346
  27 C   6.0000    0    12.011   -2.854620   -6.672925    6.301103
  28 C   6.0000    0    12.011   -4.742306   -7.462018    7.933562
  29 C   6.0000    0    12.011   -6.847347   -5.958741    8.342895
  30 C   6.0000    0    12.011   -7.070486   -3.683719    7.083997
  31 C   6.0000    0    12.011   -5.201509   -2.931211    5.398116
  32 N   7.0000    0    14.007   -5.602944   -0.587724    4.079957
  33 O   8.0000    0    15.999   -6.631937    1.110327    5.233502
  34 O   8.0000    0    15.999   -4.980600   -0.458826    1.864687
  35 C   6.0000    0    12.011   -6.945953    4.093090   -2.472026
  36 N   7.0000    0    14.007   -4.535702    5.350419   -2.636565
  37 H   1.0000    0     1.008   -3.545863    5.509345   -1.017296
  38 H   1.0000    0     1.008   -6.740313    2.284981   -1.500121
  39 H   1.0000    0     1.008   -8.290134    5.266497   -1.437685
  40 H   1.0000    0     1.008   -7.631546    3.783647   -4.386281
  41 C   6.0000    0    12.011    2.420097    7.903628   -8.057641
  42 O   8.0000    0    15.999    4.153448    8.519358   -6.678424
  43 C   6.0000    0    12.011    2.598241    7.970922  -10.904551
  44 H   1.0000    0     1.008    4.148478    6.759531  -11.504331
  45 H   1.0000    0     1.008    0.861375    7.364981  -11.812017
  46 H   1.0000    0     1.008    3.053401    9.887255  -11.496225

      -----------------------------------------------------------      
     |                   =====================                   |     
     |                           x T B                           |     
     |                   =====================                   |     
     |                         S. Grimme                         |     
     |          Mulliken Center for Theoretical Chemistry        |     
     |                    University of Bonn                     |     
      -----------------------------------------------------------      

   * xtb version 6.7.1 (edcfbbe) compiled by 'albert@albert-system' on 2024-07-22

   xtb is free software: you can redistribute it and/or modify it under
   the terms of the GNU Lesser General Public License as published by
   the Free Software Foundation, either version 3 of the License, or
   (at your option) any later version.
   
   xtb is distributed in the hope that it will be useful,
   but WITHOUT ANY WARRANTY; without even the implied warranty of
   MERCHANTABILITY or FITNESS FOR A PARTICULAR PURPOSE.  See the
   GNU Lesser General Public License for more details.
   
   Cite this work as:
   * C. Bannwarth, E. Caldeweyher, S. Ehlert, A. Hansen, P. Pracht,
     J. Seibert, S. Spicher, S. Grimme, WIREs Comput. Mol. Sci., 2020, 11,
     e01493. DOI: 10.1002/wcms.1493
   
   for GFN2-xTB:
   * C. Bannwarth, S. Ehlert and S. Grimme., J. Chem. Theory Comput., 2019,
     15, 1652-1671. DOI: 10.1021/acs.jctc.8b01176
   for GFN1-xTB:
   * S. Grimme, C. Bannwarth, P. Shushkov, J. Chem. Theory Comput., 2017,
     13, 1989-2009. DOI: 10.1021/acs.jctc.7b00118
   for GFN0-xTB:
   * P. Pracht, E. Caldeweyher, S. Ehlert, S. Grimme, ChemRxiv, 2019, preprint.
     DOI: 10.26434/chemrxiv.8326202.v1
   for GFN-FF:
   * S. Spicher and S. Grimme, Angew. Chem. Int. Ed., 2020, 59, 15665-15673.
     DOI: 10.1002/anie.202004239
   
   for ALPB and GBSA implicit solvation:
   * S. Ehlert, M. Stahn, S. Spicher, S. Grimme, J. Chem. Theory Comput.,
     2021, 17, 4250-4261. DOI: 10.1021/acs.jctc.1c00471
   
   for ddCOSMO and CPCM-X implicit solvation:
   * M. Stahn, S. Ehlert, S. Grimme, J. Phys. Chem. A,
     2023, XX, XXXX-XXXX. DOI: 10.1021/acs.jpca.3c04382
   
   for DFT-D4:
   * E. Caldeweyher, C. Bannwarth and S. Grimme, J. Chem. Phys., 2017,
     147, 034112. DOI: 10.1063/1.4993215
   * E. Caldeweyher, S. Ehlert, A. Hansen, H. Neugebauer, S. Spicher,
     C. Bannwarth and S. Grimme, J. Chem. Phys., 2019, 150, 154122.
     DOI: 10.1063/1.5090222
   * E. Caldeweyher, J.-M. Mewes, S. Ehlert and S. Grimme, Phys. Chem. Chem. Phys.
     2020, 22, 8499-8512. DOI: 10.1039/D0CP00502A
   
   for sTDA-xTB:
   * S. Grimme and C. Bannwarth, J. Chem. Phys., 2016, 145, 054103.
     DOI: 10.1063/1.4959605
   
   in the mass-spec context:
   * V. Asgeirsson, C. Bauer and S. Grimme, Chem. Sci., 2017, 8, 4879.
     DOI: 10.1039/c7sc00601b
   * J. Koopman and S. Grimme, ACS Omega 2019, 4, 12, 15120-15133.
     DOI: 10.1021/acsomega.9b02011
   
   for metadynamics refer to:
   * S. Grimme, J. Chem. Theory Comput., 2019, 155, 2847-2862
     DOI: 10.1021/acs.jctc.9b00143
   
   for SPH calculations refer to:
   * S. Spicher and S. Grimme, J. Chem. Theory Comput., 2021, 17, 1701-1714
     DOI: 10.1021/acs.jctc.0c01306
   
   for ONIOM refer to:
   * C. Plett, A. Katbashev, S. Ehlert, S. Grimme, M. Bursch,
     Phys. Chem. Chem. Phys., 2023, 25, 17860-17868. DOI: 10.1039/D3CP02178E
   
   for DIPRO refer to:
   * J. Kohn, N. Gildemeister, S. Grimme, D. Fazzi, A. Hansen,
     J. Chem. Phys., 2023, just accepted.
   
   for PTB refer to:
   * S. Grimme, M. Mueller, A. Hansen, J. Chem. Phys., 2023, 158, 124111.
     DOI: 10.1063/5.0137838
   
   with help from (in alphabetical order)
   P. Atkinson, C. Bannwarth, F. Bohle, G. Brandenburg, E. Caldeweyher
   M. Checinski, S. Dohm, S. Ehlert, S. Ehrlich, I. Gerasimov, C. Hölzer
   A. Katbashev, J. Kohn, J. Koopman, C. Lavigne, S. Lehtola, F. März, M. Müller,
   F. Musil, H. Neugebauer, J. Pisarek, C. Plett, P. Pracht, F. Pultar,
   J. Seibert, P. Shushkov, S. Spicher, M. Stahn, M. Steiner, T. Strunk,
   J. Stückrath, T. Rose, and J. Unsleber
   
 * started run on 2025/07/16 at 15:48:04.129     
   ID    Z sym.   atoms
    1    1 H      1-13, 38-41, 45-47
    2    7 N      14, 33, 37
    3    6 C      15-17, 19-24, 26-32, 36, 42, 44
    4    8 O      18, 25, 34, 35, 43

           -------------------------------------------------
          |                Calculation Setup                |
           -------------------------------------------------

          program call               : /home/esp/bin/orca_6_1_0/otool_xtb /home/esp/scriptDevelopment/drFrankenstein/11_PCY_CHARMM/04_torsion_scanning/torsion_NH1-CT1-CG321-CG2R61/scans_PCY_conformer_24/PCY_conformer_24_opt/orca_opt_XTB.xyz --grad -c 0 -u 0 -P 1 --namespace /home/esp/scriptDevelopment/drFrankenstein/11_PCY_CHARMM/04_torsion_scanning/torsion_NH1-CT1-CG321-CG2R61/scans_PCY_conformer_24/PCY_conformer_24_opt/orca_opt --input /home/esp/scriptDevelopment/drFrankenstein/11_PCY_CHARMM/04_torsion_scanning/torsion_NH1-CT1-CG321-CG2R61/scans_PCY_conformer_24/PCY_conformer_24_opt/orca_opt_XTB.input.tmp --alpb WATER --acc 0.200000
          calculation namespace      : /home/esp/scriptDevelopment/drFrankenstein/11_PCY_CHARMM/04_torsion_scanning/torsion_NH1-CT1-CG321-CG2R61/scans_PCY_conformer_24/PCY_conformer_24_opt/orca_opt
          coordinate file            : /home/esp/scriptDevelopment/drFrankenstein/11_PCY_CHARMM/04_torsion_scanning/torsion_NH1-CT1-CG321-CG2R61/scans_PCY_conformer_24/PCY_conformer_24_opt/orca_opt_XTB.xyz
          omp threads                :                     1


           -------------------------------------------------
          |                 G F N 2 - x T B                 |
           -------------------------------------------------

        Reference                      10.1021/acs.jctc.8b01176
      * Hamiltonian:
        H0-scaling (s, p, d)           1.850000    2.230000    2.230000
        zeta-weighting                 0.500000
      * Dispersion:
        s8                             2.700000
        a1                             0.520000
        a2                             5.000000
        s9                             5.000000
      * Repulsion:
        kExp                           1.500000    1.000000
        rExp                           1.000000
      * Coulomb:
        alpha                          2.000000
        third order                    shell-resolved
        anisotropic                    true
        a3                             3.000000
        a5                             4.000000
        cn-shift                       1.200000
        cn-exp                         4.000000
        max-rad                        5.000000

      * Solvation model:               ALPB
        Solvent                        WATER
        Parameter file                 internal GFN2-xTB/ALPB
        Dielectric constant                8.0200E+01
        Reference state                gsolv [1 M gas/solution]
        Free energy shift                  1.0808E-03 Eh       6.7819E-01 kcal/mol
        Temperature                        2.9815E+02 K
        Density                            1.0000E+00 kg/L
        Solvent mass                       1.8000E+01 g/mol
        Interaction kernel             P16
        Born radius scaling (c1)           1.4744E+00
        Born radii integrator          GBOBC
        Born offset                        0.0000E+00 a0       0.0000E+00 AA
        H-bond correction              true
        Ion screening                  false
        Surface tension                    1.0000E-05 Eh       1.5569E+01 dyn/cm
        Grid points                               230 per atom

          ...................................................
          :                      SETUP                      :
          :.................................................:
          :  # basis functions                 128          :
          :  # atomic orbitals                 128          :
          :  # shells                           74          :
          :  # electrons                       141          :
          :  max. iterations                   250          :
          :  Hamiltonian                  GFN2-xTB          :
          :  restarted?                      false          :
          :  GBSA solvation                   true          :
          :  PC potential                    false          :
          :  electronic temp.          300.0000000     K    :
          :  accuracy                    0.2000000          :
          :  -> integral cutoff          0.3198970E+02      :
          :  -> integral neglect         0.2000000E-08      :
          :  -> SCF convergence          0.2000000E-06 Eh   :
          :  -> wf. convergence          0.2000000E-04 e    :
          :  Broyden damping             0.4000000          :
          :  net charge                          0          :
          :  unpaired electrons                  0          :
          ...................................................

 iter      E             dE          RMSdq      gap      omega  full diag
   1    -80.7340922 -0.807341E+02  0.489E+00    1.09       0.0  T
   2    -80.9351209 -0.201029E+00  0.253E+00    0.37       1.0  T
   3    -80.9398557 -0.473479E-02  0.118E+00    0.23       1.0  T
   4    -80.8219460  0.117910E+00  0.161E+00    0.19       1.0  T
   5    -80.9422660 -0.120320E+00  0.324E-01    0.42       1.0  T
   6    -80.9451939 -0.292790E-02  0.159E-01    0.27       1.0  T
   7    -80.9452617 -0.678660E-04  0.134E-01    0.25       1.0  T
   8    -80.9458019 -0.540125E-03  0.575E-02    0.17       1.0  T
   9    -80.9459309 -0.129039E-03  0.917E-03    0.14       1.6  T
  10    -80.9459318 -0.902114E-06  0.380E-03    0.14       3.8  T
  11    -80.9459319 -0.520872E-07  0.280E-03    0.14       5.2  T
  12    -80.9459318  0.483577E-07  0.246E-03    0.14       5.9  T
  13    -80.9459321 -0.256813E-06  0.348E-04    0.14      41.9  T
  14    -80.9459321  0.476909E-08  0.388E-04    0.14      37.6  T
  15    -80.9459321 -0.504996E-08  0.173E-04    0.14      84.5  T
  16    -80.9459321 -0.114399E-08  0.366E-05    0.14     398.4  T

   *** convergence criteria satisfied after 16 iterations ***

         #    Occupation            Energy/Eh            Energy/eV
      -------------------------------------------------------------
         1        2.0000           -0.7787691             -21.1914
       ...           ...                  ...                  ...
        65        2.0000           -0.4240133             -11.5380
        66        2.0000           -0.4162895             -11.3278
        67        2.0000           -0.4133451             -11.2477
        68        2.0000           -0.4049852             -11.0202
        69        2.0000           -0.4011124             -10.9148
        70        2.0000           -0.3828325             -10.4174
        71        0.9347           -0.3279770              -8.9247 (HOMO)
        72        0.0653           -0.3229210              -8.7871 (LUMO)
        73                         -0.2503355              -6.8120
        74                         -0.2415859              -6.5739
        75                         -0.2316692              -6.3040
        76                         -0.2229497              -6.0668
       ...                                ...                  ...
       128                          0.6557504              17.8439
      -------------------------------------------------------------
                  HL-Gap            0.0050560 Eh            0.1376 eV
             Fermi-level           -0.3404268 Eh           -9.2635 eV

 SCC (total)                   0 d,  0 h,  0 min,  0.075 sec
 SCC setup                      ...        0 min,  0.002 sec (  2.081%)
 Dispersion                     ...        0 min,  0.000 sec (  0.628%)
 classical contributions        ...        0 min,  0.000 sec (  0.171%)
 integral evaluation            ...        0 min,  0.005 sec (  7.299%)
 iterations                     ...        0 min,  0.044 sec ( 58.735%)
 molecular gradient             ...        0 min,  0.022 sec ( 28.903%)
 printout                       ...        0 min,  0.002 sec (  2.134%)

         :::::::::::::::::::::::::::::::::::::::::::::::::::::
         ::                     SUMMARY                     ::
         :::::::::::::::::::::::::::::::::::::::::::::::::::::
         :: total energy             -79.897703891367 Eh    ::
         :: total w/o Gsasa/hb       -79.894938717089 Eh    ::
         :: gradient norm              0.037987570770 Eh/a0 ::
         :: HOMO-LUMO gap              0.137580873957 eV    ::
         ::.................................................::
         :: SCC energy               -80.945409519949 Eh    ::
         :: -> isotropic ES            0.180423538227 Eh    ::
         :: -> anisotropic ES          0.000538622826 Eh    ::
         :: -> anisotropic XC          0.021263462146 Eh    ::
         :: -> dispersion             -0.052508668877 Eh    ::
         :: -> Gsolv                  -0.030553829327 Eh    ::
         ::    -> Gelec               -0.027788655049 Eh    ::
         ::    -> Gsasa                0.002511541213 Eh    ::
         ::    -> Ghb                 -0.006357475189 Eh    ::
         ::    -> Gshift               0.001080759698 Eh    ::
         :: repulsion energy           1.047705628582 Eh    ::
         :: add. restraining           0.000000000000 Eh    ::
         :: total charge               0.000000000000 e     ::
         :::::::::::::::::::::::::::::::::::::::::::::::::::::


Property printout bound to 'properties.out'

           -------------------------------------------------
          | TOTAL ENERGY              -79.897703891367 Eh   |
          | GRADIENT NORM               0.037987570770 Eh/α |
          | HOMO-LUMO GAP               0.137580873957 eV   |
           -------------------------------------------------

------------------------------------------------------------------------
 * finished run on 2025/07/16 at 15:48:04.239     
------------------------------------------------------------------------
 total:
 * wall-time:     0 d,  0 h,  0 min,  0.110 sec
 *  cpu-time:     0 d,  0 h,  0 min,  0.073 sec
 * ratio c/w:     0.661 speedup
 SCF:
 * wall-time:     0 d,  0 h,  0 min,  0.075 sec
 *  cpu-time:     0 d,  0 h,  0 min,  0.059 sec
 * ratio c/w:     0.788 speedup


-------------------------   --------------------
FINAL SINGLE POINT ENERGY       -79.897703891370
-------------------------   --------------------


-------------
DIPOLE MOMENT
-------------
                                X             Y             Z
Total Dipole Moment    :     -0.14800      -2.47400       1.24600
                        -----------------------------------------
Magnitude (a.u.)       :      2.77400
Magnitude (Debye)      :      7.05096


------------------
CARTESIAN GRADIENT
------------------

   1   H   :   -0.000167556   -0.000029125   -0.000245461
   2   H   :    0.000486052   -0.000591050    0.000032270
   3   H   :    0.000073052    0.000131301   -0.000238708
   4   H   :   -0.000285554    0.000726537    0.000397966
   5   H   :    0.000352858   -0.001026043   -0.000210494
   6   H   :   -0.000144898    0.000674498    0.000121104
   7   H   :    0.000098547   -0.000373786   -0.000201997
   8   H   :    0.000368865    0.000099780   -0.000280517
   9   H   :   -0.000337610   -0.000419826    0.000543958
  10   H   :    0.000002960    0.000097213   -0.000234923
  11   H   :   -0.000107376    0.000099860    0.000181228
  12   H   :   -0.001766934   -0.000741053    0.001079646
  13   H   :    0.000060834   -0.000639397    0.000360730
  14   N   :   -0.001243679   -0.000838973   -0.000121982
  15   C   :    0.000574294    0.000428383   -0.000106234
  16   C   :   -0.007936155   -0.002956004   -0.014759048
  17   C   :    0.000828844   -0.000344272   -0.000379641
  18   O   :    0.007755349    0.003082175    0.011088088
  19   C   :    0.000177563   -0.000003579   -0.000010633
  20   C   :    0.000185683   -0.001063666   -0.000077435
  21   C   :   -0.000175589   -0.000474731    0.000046774
  22   C   :   -0.000486859   -0.000802714    0.000031788
  23   C   :   -0.000276801    0.000821748    0.000577747
  24   C   :   -0.000052453   -0.000025687    0.000152648
  25   O   :   -0.000703895   -0.002903832   -0.000983425
  26   C   :    0.000446843    0.005196228    0.001350072
  27   C   :   -0.000429999    0.000516081    0.000366248
  28   C   :   -0.001220388    0.000417010    0.000533208
  29   C   :    0.000063707    0.000846122   -0.000479638
  30   C   :    0.000676512    0.000354216   -0.000670269
  31   C   :    0.001216152   -0.000614202   -0.001279626
  32   C   :    0.000599826   -0.003211147    0.001714905
  33   N   :   -0.003001556    0.015556432   -0.004877460
  34   O   :    0.003434100   -0.008192035   -0.001879453
  35   O   :   -0.000840763   -0.003848912    0.004967957
  36   C   :    0.001299303   -0.000576659   -0.000404256
  37   N   :   -0.000226471   -0.000422729    0.003107691
  38   H   :   -0.000550405   -0.000417533   -0.000216309
  39   H   :   -0.000097698    0.000007528    0.000109569
  40   H   :   -0.000594285    0.000455931    0.000308010
  41   H   :    0.000315381    0.000314215   -0.000130332
  42   C   :    0.011809968    0.004338826    0.011818174
  43   O   :   -0.009845492   -0.003533911   -0.007803633
  44   C   :    0.000394095    0.000164899   -0.001401569
  45   H   :    0.000079655   -0.000370457   -0.000461513
  46   H   :   -0.000623030   -0.000220269   -0.000969060
  47   H   :   -0.000184999    0.000312606   -0.000466166

Difference to translation invariance:
           :   -0.0000000000   -0.0000000000    0.0000000000

Difference to rotation invariance:
           :    0.0001152966    0.0000014953    0.0008691730

Norm of the Cartesian gradient     ...    0.0379875708
RMS gradient                       ...    0.0031991306
MAX gradient                       ...    0.0155564321
------------------------------------------------------------------------------
                         ORCA GEOMETRY RELAXATION STEP
------------------------------------------------------------------------------

Reading the OPT-File                    .... done
Getting information on internals        .... done
Copying old internal coords+grads       .... done
Making the new internal coordinates     .... (2022 redundants) done
Validating the new internal coordinates .... (2022 redundants) done
Calculating the B-matrix                .... done
Calculating the G,G- and P matrices     .... done
Transforming gradient to internals      .... done
Projecting the internal gradient        .... done
Number of atoms                         ....  47
Number of internal coordinates          .... 227
Current Energy                          ....   -79.897703891 Eh
Current gradient norm                   ....     0.037987571 Eh/bohr
Maximum allowed component of the step   ....  0.300
Current trust radius                    ....  0.300
Evaluating the initial hessian          ....  (Almloef) done
Projecting the Hessian                  .... done
Forming the augmented Hessian           .... done
Diagonalizing the augmented Hessian     .... done
Last element of RFO vector              ....  0.993657614
Lowest eigenvalues of augmented Hessian:
 -0.001017990  0.010313492  0.012000693  0.012161408  0.012249696
Length of the computed step             ....  0.113165707
The final length of the internal step   ....  0.113165707
Converting the step to Cartesian space:
 Initial RMS(Int)=    0.0075110718
Transforming coordinates:
 Iter   0:  RMS(Cart)=    0.0496554681 RMS(Int)=    0.0076309454
done
Storing new coordinates                 .... done

                                .--------------------.
          ----------------------|Geometry convergence|-------------------------
          Item                value                   Tolerance       Converged
          ---------------------------------------------------------------------
          RMS gradient        0.0016277057            0.0001000000      NO
          MAX gradient        0.0136005994            0.0003000000      NO
          RMS step            0.0075110718            0.0020000000      NO
          MAX step            0.0456611154            0.0040000000      NO
          -------------------------------------------------------------------------
          ........................................................
          Max(Bonds)      0.0242      Max(Angles)    0.60
          Max(Dihed)        2.02      Max(Improp)    0.00
          ---------------------------------------------------------------------

The optimization has not yet converged - more geometry cycles are needed


    ---------------------------------------------------------------------------
                         Redundant Internal Coordinates
                            (Angstroem and degrees)

        Definition                    Value    dE/dq     Step     New-Value
    ----------------------------------------------------------------------------
     1. B(N  13,H  11)                1.0287  0.000027 -0.0006    1.0281   
     2. B(C  14,N  13)                1.3607 -0.000908  0.0014    1.3621   
     3. B(C  15,C  14)                1.4590  0.001804 -0.0010    1.4580   
     4. B(C  16,H   3)                1.0960  0.000873 -0.0013    1.0947   
     5. B(C  16,C  14)                1.4885  0.000227 -0.0004    1.4881   
     6. B(C  16,H   7)                1.0930  0.000447 -0.0007    1.0924   
     7. B(O  17,C  15)                1.2384 -0.013601  0.0074    1.2458   
     8. B(O  17,H  11)                1.9395 -0.001714  0.0242    1.9636   
     9. B(C  18,C  16)                1.5082 -0.000413  0.0003    1.5085   
    10. B(C  19,C  18)                1.3914 -0.000229  0.0002    1.3915   
    11. B(C  19,H   5)                1.0808  0.000684 -0.0010    1.0799   
    12. B(C  20,C  19)                1.3792 -0.000448  0.0003    1.3795   
    13. B(C  20,H   2)                1.0787 -0.000233  0.0003    1.0790   
    14. B(C  21,C  20)                1.3933 -0.000623  0.0005    1.3939   
    15. B(C  22,C  21)                1.3897 -0.000300  0.0002    1.3899   
    16. B(C  22,H   6)                1.0791  0.000435 -0.0006    1.0785   
    17. B(C  23,C  22)                1.3820 -0.000178  0.0001    1.3821   
    18. B(C  23,C  18)                1.3886 -0.000381  0.0003    1.3889   
    19. B(C  23,H   9)                1.0801  0.000214 -0.0003    1.0798   
    20. B(O  24,C  21)                1.3651 -0.001364  0.0010    1.3662   
    21. B(C  25,O  24)                1.4164 -0.004418  0.0046    1.4209   
    22. B(C  25,H   4)                1.0971  0.000900 -0.0014    1.0957   
    23. B(C  25,H   0)                1.0956  0.000286 -0.0004    1.0952   
    24. B(C  26,C  25)                1.5076 -0.000721  0.0009    1.5085   
    25. B(C  27,C  26)                1.3872  0.000182 -0.0002    1.3870   
    26. B(C  27,H   1)                1.0796  0.000724 -0.0010    1.0786   
    27. B(C  28,C  27)                1.3851 -0.000802  0.0006    1.3857   
    28. B(C  28,H  12)                1.0792  0.000735 -0.0010    1.0782   
    29. B(C  29,C  28)                1.3859 -0.000633  0.0005    1.3864   
    30. B(C  29,H   8)                1.0787  0.000711 -0.0010    1.0777   
    31. B(C  30,C  29)                1.3810 -0.000027  0.0000    1.3810   
    32. B(C  30,H  10)                1.0796  0.000172 -0.0002    1.0793   
    33. B(C  31,C  30)                1.3902 -0.001062  0.0009    1.3911   
    34. B(C  31,C  26)                1.3979 -0.001163  0.0011    1.3990   
    35. B(N  32,C  31)                1.4386  0.003737 -0.0040    1.4346   
    36. B(O  33,N  32)                1.2151 -0.008539  0.0047    1.2199   
    37. B(O  34,N  32)                1.2196 -0.005373  0.0031    1.2227   
    38. B(N  36,C  35)                1.4412 -0.000922  0.0010    1.4422   
    39. B(N  36,C  15)                1.3520  0.002319 -0.0018    1.3502   
    40. B(H  37,N  36)                1.0078 -0.000502  0.0006    1.0084   
    41. B(H  38,O  34)                2.4791 -0.000248  0.0202    2.4992   
    42. B(H  38,C  35)                1.0917 -0.000188  0.0005    1.0922   
    43. B(H  39,C  35)                1.0914  0.000805 -0.0012    1.0902   
    44. B(H  40,C  35)                1.0884 -0.000034  0.0001    1.0884   
    45. B(C  41,N  13)                1.3703  0.001425 -0.0013    1.3690   
    46. B(O  42,C  41)                1.2166 -0.013051  0.0065    1.2232   
    47. B(C  43,C  41)                1.5099  0.003272 -0.0043    1.5056   
    48. B(H  44,C  43)                1.0884  0.000414 -0.0006    1.0878   
    49. B(H  45,C  43)                1.0854  0.001022 -0.0015    1.0840   
    50. B(H  46,C  43)                1.0883  0.000383 -0.0006    1.0877   
    51. A(H  11,N  13,C  41)          119.79  0.000934   -0.25    119.55   
    52. A(C  14,N  13,C  41)          131.71 -0.000873    0.04    131.75   
    53. A(H  11,N  13,C  14)          108.48 -0.000062    0.21    108.69   
    54. A(N  13,C  14,C  15)          110.87 -0.000035    0.39    111.26   
    55. A(N  13,C  14,C  16)          123.31 -0.001643    0.12    123.43   
    56. A(C  15,C  14,C  16)          125.79  0.001671   -0.51    125.28   
    57. A(O  17,C  15,N  36)          123.07  0.000537   -0.14    122.94   
    58. A(C  14,C  15,O  17)          118.95 -0.000705    0.32    119.27   
    59. A(C  14,C  15,N  36)          117.94  0.000175   -0.19    117.76   
    60. A(H   3,C  16,H   7)          107.37 -0.000047    0.01    107.38   
    61. A(H   3,C  16,C  14)          109.82  0.000318   -0.03    109.79   
    62. A(C  14,C  16,C  18)          111.64 -0.000559   -0.06    111.58   
    63. A(H   3,C  16,C  18)          109.34 -0.000172    0.02    109.36   
    64. A(H   7,C  16,C  14)          108.20 -0.000113    0.09    108.29   
    65. A(H   7,C  16,C  18)          110.37  0.000597   -0.02    110.35   
    66. A(C  16,C  18,C  23)          120.10  0.000081   -0.02    120.08   
    67. A(C  19,C  18,C  23)          118.55  0.000101   -0.00    118.55   
    68. A(C  16,C  18,C  19)          121.32 -0.000189    0.03    121.36   
    69. A(C  18,C  19,C  20)          120.75  0.000095   -0.02    120.73   
    70. A(H   5,C  19,C  18)          119.91 -0.000173    0.03    119.94   
    71. A(H   5,C  19,C  20)          119.33  0.000075   -0.01    119.32   
    72. A(H   2,C  20,C  21)          118.73  0.000229   -0.03    118.70   
    73. A(C  19,C  20,C  21)          120.19 -0.000137    0.02    120.20   
    74. A(H   2,C  20,C  19)          121.06 -0.000095    0.02    121.08   
    75. A(C  22,C  21,O  24)          124.73  0.000305   -0.05    124.69   
    76. A(C  20,C  21,O  24)          115.86 -0.000438    0.06    115.91   
    77. A(C  20,C  21,C  22)          119.41  0.000135   -0.01    119.40   
    78. A(C  21,C  22,C  23)          119.77  0.000086   -0.02    119.75   
    79. A(H   6,C  22,C  23)          119.30 -0.000099    0.02    119.32   
    80. A(H   6,C  22,C  21)          120.92  0.000012    0.00    120.92   
    81. A(C  18,C  23,C  22)          121.19 -0.000287    0.03    121.22   
    82. A(H   9,C  23,C  22)          119.39  0.000275   -0.04    119.36   
    83. A(H   9,C  23,C  18)          119.42  0.000010    0.01    119.42   
    84. A(C  21,O  24,C  25)          119.40 -0.001504    0.17    119.57   
    85. A(H   0,C  25,H   4)          109.22 -0.000153    0.01    109.23   
    86. A(O  24,C  25,C  26)          107.67 -0.001099    0.16    107.83   
    87. A(H   4,C  25,C  26)          110.01  0.000235   -0.02    109.99   
    88. A(H   0,C  25,C  26)          109.37 -0.000115    0.05    109.42   
    89. A(H   4,C  25,O  24)          109.63  0.000741   -0.17    109.46   
    90. A(H   0,C  25,O  24)          110.92  0.000386   -0.04    110.88   
    91. A(C  27,C  26,C  31)          117.87  0.000404   -0.05    117.82   
    92. A(C  25,C  26,C  31)          120.86 -0.001216    0.16    121.02   
    93. A(C  25,C  26,C  27)          121.14  0.000816   -0.12    121.02   
    94. A(C  26,C  27,C  28)          121.18 -0.000043    0.00    121.18   
    95. A(H   1,C  27,C  28)          119.78 -0.000225    0.04    119.82   
    96. A(H   1,C  27,C  26)          119.04  0.000268   -0.04    118.99   
    97. A(C  27,C  28,C  29)          120.27 -0.000317    0.04    120.31   
    98. A(H  12,C  28,C  29)          120.04  0.000145   -0.02    120.03   
    99. A(H  12,C  28,C  27)          119.67  0.000173   -0.02    119.65   
   100. A(C  28,C  29,C  30)          119.59  0.000032   -0.01    119.58   
   101. A(H   8,C  29,C  30)          119.99  0.000269   -0.04    119.94   
   102. A(H   8,C  29,C  28)          120.43 -0.000300    0.05    120.48   
   103. A(C  29,C  30,C  31)          119.90  0.000373   -0.05    119.85   
   104. A(H  10,C  30,C  31)          118.73 -0.000091    0.01    118.74   
   105. A(H  10,C  30,C  29)          121.37 -0.000281    0.04    121.41   
   106. A(C  30,C  31,N  32)          116.94  0.000600   -0.10    116.84   
   107. A(C  26,C  31,N  32)          121.90 -0.000156    0.05    121.95   
   108. A(C  26,C  31,C  30)          121.16 -0.000446    0.06    121.21   
   109. A(O  33,N  32,O  34)          124.23  0.005200   -0.60    123.63   
   110. A(C  31,N  32,O  34)          118.32 -0.003387    0.48    118.80   
   111. A(C  31,N  32,O  33)          117.39 -0.001862    0.24    117.63   
   112. A(N  36,C  35,H  38)          110.17  0.000418   -0.10    110.07   
   113. A(H  39,C  35,H  40)          109.58  0.000074    0.02    109.60   
   114. A(H  38,C  35,H  40)          109.87  0.000234   -0.03    109.83   
   115. A(N  36,C  35,H  40)          107.95 -0.000761    0.15    108.11   
   116. A(H  38,C  35,H  39)          109.11 -0.000079   -0.02    109.09   
   117. A(N  36,C  35,H  39)          110.15  0.000111   -0.02    110.13   
   118. A(C  35,N  36,H  37)          116.56  0.000303   -0.06    116.50   
   119. A(C  15,N  36,H  37)          119.17  0.001120   -0.18    118.98   
   120. A(C  15,N  36,C  35)          122.20 -0.001468    0.25    122.45   
   121. A(O  42,C  41,C  43)          123.04  0.000530   -0.07    122.96   
   122. A(N  13,C  41,C  43)          113.44 -0.000992    0.14    113.58   
   123. A(N  13,C  41,O  42)          123.52  0.000462   -0.06    123.46   
   124. A(H  45,C  43,H  46)          109.60 -0.000608    0.12    109.72   
   125. A(H  44,C  43,H  46)          107.34 -0.000110   -0.01    107.34   
   126. A(C  41,C  43,H  46)          108.84  0.000350   -0.07    108.76   
   127. A(H  44,C  43,H  45)          109.59 -0.000567    0.12    109.71   
   128. A(C  41,C  43,H  45)          112.43  0.000574   -0.09    112.34   
   129. A(C  41,C  43,H  44)          108.91  0.000342   -0.07    108.85   
   130. D(C  16,C  14,N  13,C  41)      0.12 -0.000146    0.16      0.28   
   131. D(C  15,C  14,N  13,C  41)   -177.99  0.000020    0.05   -177.94   
   132. D(C  16,C  14,N  13,H  11)    178.80 -0.000120    0.15    178.95   
   133. D(C  15,C  14,N  13,H  11)      0.69  0.000046    0.04      0.73   
   134. D(N  36,C  15,C  14,N  13)   -177.66 -0.000688    1.53   -176.12   
   135. D(O  17,C  15,C  14,C  16)   -177.66 -0.000226    1.32   -176.35   
   136. D(N  36,C  15,C  14,C  16)      4.29 -0.000440    1.40      5.69   
   137. D(O  17,C  15,C  14,N  13)      0.40 -0.000474    1.44      1.84   
   138. D(H   7,C  16,C  14,C  15)    169.11 -0.000367    0.49    169.60   
   139. D(C  18,C  16,C  14,N  13)   -130.36 -0.000446    0.35   -130.01   
   140. D(H   3,C  16,C  14,C  15)    -73.97 -0.000312    0.53    -73.44   
   141. D(H   3,C  16,C  14,N  13)    108.20 -0.000075    0.38    108.59   
   142. D(H   7,C  16,C  14,N  13)     -8.71 -0.000130    0.34     -8.37   
   143. D(C  19,C  18,C  16,H   3)     -8.13 -0.000107    0.48     -7.65   
   144. D(C  19,C  18,C  16,H   7)    109.77  0.000086    0.48    110.25   
   145. D(C  19,C  18,C  16,C  14)   -129.85 -0.000023    0.54   -129.31   
   146. D(C  23,C  18,C  16,H   7)    -71.97 -0.000170    0.66    -71.31   
   147. D(C  23,C  18,C  16,H   3)    170.14 -0.000362    0.65    170.79   
   148. D(C  20,C  19,C  18,C  16)    175.61 -0.000316    0.06    175.67   
   149. D(H   5,C  19,C  18,C  23)    178.58  0.000074   -0.12    178.46   
   150. D(C  20,C  19,C  18,C  23)     -2.69 -0.000064   -0.11     -2.79   
   151. D(H   5,C  19,C  18,C  16)     -3.13 -0.000178    0.05     -3.07   
   152. D(C  21,C  20,C  19,C  18)     -0.26 -0.000021    0.07     -0.19   
   153. D(C  21,C  20,C  19,H   5)    178.48 -0.000162    0.08    178.56   
   154. D(H   2,C  20,C  19,C  18)   -178.48  0.000089    0.05   -178.43   
   155. D(H   2,C  20,C  19,H   5)      0.26 -0.000051    0.06      0.32   
   156. D(O  24,C  21,C  20,C  19)   -177.45  0.000241   -0.05   -177.50   
   157. D(O  24,C  21,C  20,H   2)      0.81  0.000128   -0.03      0.78   
   158. D(C  22,C  21,C  20,C  19)      3.35  0.000068    0.05      3.39   
   159. D(C  22,C  21,C  20,H   2)   -178.39 -0.000045    0.07   -178.32   
   160. D(H   6,C  22,C  21,C  20)    176.87  0.000042   -0.06    176.81   
   161. D(C  23,C  22,C  21,O  24)    177.44 -0.000222   -0.02    177.41   
   162. D(C  23,C  22,C  21,C  20)     -3.44 -0.000039   -0.13     -3.56   
   163. D(H   6,C  22,C  21,O  24)     -2.26 -0.000141    0.04     -2.22   
   164. D(C  18,C  23,C  22,C  21)      0.46 -0.000049    0.09      0.55   
   165. D(C  18,C  23,C  22,H   6)   -179.84 -0.000129    0.03   -179.81   
   166. D(H   9,C  23,C  22,C  21)   -178.86  0.000126   -0.01   -178.87   
   167. D(H   9,C  23,C  22,H   6)      0.84  0.000047   -0.07      0.77   
   168. D(C  22,C  23,C  18,C  19)      2.59  0.000091    0.03      2.62   
   169. D(C  22,C  23,C  18,C  16)   -175.72  0.000345   -0.14   -175.87   
   170. D(H   9,C  23,C  18,C  19)   -178.08 -0.000083    0.13   -177.96   
   171. D(H   9,C  23,C  18,C  16)      3.60  0.000171   -0.04      3.56   
   172. D(C  25,O  24,C  21,C  22)    -26.01 -0.000205    0.55    -25.46   
   173. D(C  25,O  24,C  21,C  20)    154.83 -0.000386    0.65    155.49   
   174. D(C  26,C  25,O  24,C  21)   -134.69  0.000628   -0.71   -135.40   
   175. D(H   4,C  25,O  24,C  21)    105.65  0.000574   -0.69    104.96   
   176. D(H   0,C  25,O  24,C  21)    -15.05  0.000030   -0.57    -15.62   
   177. D(C  31,C  26,C  25,H   4)    172.35  0.000371   -0.91    171.44   
   178. D(C  31,C  26,C  25,H   0)    -67.69  0.000256   -0.86    -68.56   
   179. D(C  27,C  26,C  25,O  24)   -122.93 -0.000077   -0.57   -123.50   
   180. D(C  27,C  26,C  25,H   4)     -3.50  0.000295   -0.69     -4.19   
   181. D(C  27,C  26,C  25,H   0)    116.45  0.000180   -0.65    115.80   
   182. D(C  28,C  27,C  26,C  31)      0.37 -0.000040    0.10      0.47   
   183. D(C  28,C  27,C  26,C  25)    176.34 -0.000033   -0.10    176.24   
   184. D(H   1,C  27,C  26,C  31)   -179.21 -0.000017    0.08   -179.13   
   185. D(H   1,C  27,C  26,C  25)     -3.24 -0.000010   -0.12     -3.36   
   186. D(C  29,C  28,C  27,C  26)     -1.51  0.000051   -0.14     -1.65   
   187. D(C  29,C  28,C  27,H   1)    178.07  0.000030   -0.12    177.95   
   188. D(H  12,C  28,C  27,C  26)    179.54  0.000039   -0.07    179.47   
   189. D(H  12,C  28,C  27,H   1)     -0.88  0.000018   -0.06     -0.94   
   190. D(C  30,C  29,C  28,H  12)    179.90  0.000027   -0.07    179.83   
   191. D(H   8,C  29,C  28,C  27)   -178.91  0.000012    0.01   -178.90   
   192. D(H   8,C  29,C  28,H  12)      0.04  0.000025   -0.06     -0.02   
   193. D(C  30,C  29,C  28,C  27)      0.95  0.000015   -0.01      0.94   
   194. D(C  31,C  30,C  29,C  28)      0.71 -0.000077    0.19      0.90   
   195. D(C  31,C  30,C  29,H   8)   -179.43 -0.000075    0.17   -179.26   
   196. D(H  10,C  30,C  29,C  28)   -179.91  0.000016   -0.03   -179.93   
   197. D(H  10,C  30,C  29,H   8)     -0.05  0.000017   -0.04     -0.08   
   198. D(N  32,C  31,C  30,C  29)    177.65 -0.000120    0.24    177.89   
   199. D(N  32,C  31,C  30,H  10)     -1.75 -0.000209    0.44     -1.30   
   200. D(C  26,C  31,C  30,C  29)     -1.87  0.000091   -0.23     -2.09   
   201. D(C  26,C  31,C  30,H  10)    178.73  0.000002   -0.02    178.71   
   202. D(N  32,C  31,C  26,C  27)   -178.18  0.000188   -0.40   -178.59   
   203. D(N  32,C  31,C  26,C  25)      5.83  0.000095   -0.19      5.64   
   204. D(C  30,C  31,C  26,C  27)      1.31 -0.000031    0.08      1.40   
   205. D(C  30,C  31,C  26,C  25)   -174.67 -0.000124    0.30   -174.38   
   206. D(O  34,N  32,C  31,C  30)   -141.02  0.000738   -2.02   -143.03   
   207. D(O  34,N  32,C  31,C  26)     38.50  0.000524   -1.55     36.95   
   208. D(O  33,N  32,C  31,C  30)     36.32 -0.000222    0.80     37.12   
   209. D(O  33,N  32,C  31,C  26)   -144.16 -0.000436    1.26   -142.90   
   210. D(H  37,N  36,C  35,H  39)     69.86  0.000144    0.00     69.86   
   211. D(H  37,N  36,C  35,H  38)    -50.56 -0.000097    0.11    -50.45   
   212. D(C  15,N  36,C  35,H  40)     -7.06 -0.000134    0.08     -6.98   
   213. D(C  15,N  36,C  35,H  39)   -126.67  0.000173   -0.03   -126.70   
   214. D(C  15,N  36,C  35,H  38)    112.91 -0.000069    0.08    112.99   
   215. D(H  37,N  36,C  15,O  17)    172.80 -0.000354    0.54    173.35   
   216. D(H  37,N  36,C  15,C  14)     -9.23 -0.000157    0.46     -8.77   
   217. D(C  35,N  36,C  15,O  17)      9.75 -0.000239    0.55     10.30   
   218. D(C  35,N  36,C  15,C  14)   -172.28 -0.000042    0.47   -171.81   
   219. D(C  43,C  41,N  13,C  14)    178.97 -0.000016    0.02    178.99   
   220. D(C  43,C  41,N  13,H  11)      0.41 -0.000030    0.03      0.44   
   221. D(O  42,C  41,N  13,C  14)     -0.97  0.000045   -0.06     -1.02   
   222. D(O  42,C  41,N  13,H  11)   -179.53  0.000031   -0.05   -179.57   
   223. D(H  46,C  43,C  41,N  13)    122.01 -0.000141    0.04    122.05   
   224. D(H  45,C  43,C  41,O  42)   -179.67 -0.000050    0.07   -179.60   
   225. D(H  45,C  43,C  41,N  13)      0.39  0.000010   -0.01      0.39   
   226. D(H  44,C  43,C  41,O  42)     58.68  0.000052    0.02     58.70   
   227. D(H  44,C  43,C  41,N  13)   -121.26  0.000112   -0.05   -121.31   
    ----------------------------------------------------------------------------

Geometry step timings:
Preparation and reading OPT file:      0.000 s ( 0.200 %)
Internal coordinates            :      0.000 s ( 0.244 %)
B/P matrices and projection     :      0.009 s (48.820 %)
Hessian update/contruction      :      0.004 s (24.348 %)
Making the step                 :      0.004 s (20.251 %)
Converting the step to Cartesian:      0.000 s ( 2.657 %)
Storing new data                :      0.000 s ( 0.222 %)
Checking convergence            :      0.000 s ( 0.244 %)
Final printing                  :      0.001 s ( 3.009 %)
Total time                      :      0.018 s

Time for energy+gradient        :      0.116 s
Time for complete geometry iter :      0.136 s

         *************************************************************
         *                GEOMETRY OPTIMIZATION CYCLE   2            *
         *************************************************************
---------------------------------
CARTESIAN COORDINATES (ANGSTROEM)
---------------------------------
  H    -0.820582   -1.795612    0.732047
  H    -0.606052   -4.142547    3.186779
  H    -0.386667    1.899142    2.854736
  H     0.017683    4.724563   -0.831215
  H     0.380516   -2.496815    1.852862
  H    -0.149851    3.841468    1.355086
  H     0.654338   -0.705892   -0.368452
  H     1.423761    4.023198   -1.629216
  H    -4.383351   -3.530439    5.084579
  H     0.863630    1.217639   -1.854333
  H    -4.610295   -1.364404    3.895379
  H    -0.658919    3.466571   -4.489145
  H    -2.377952   -4.923637    4.696751
  N     0.073084    3.733044   -3.818175
  C    -0.407464    3.557858   -2.555780
  C    -1.771227    3.042715   -2.575980
  C     0.392226    3.824747   -1.329550
  O    -2.312779    2.795470   -3.670328
  C     0.339036    2.662591   -0.369338
  C     0.018364    2.845859    0.972274
  C    -0.113609    1.765210    1.819443
  C     0.069835    0.470132    1.337789
  C     0.455890    0.282104    0.015852
  C     0.581209    1.372683   -0.823756
  O    -0.133863   -0.536325    2.238835
  C    -0.486949   -1.832001    1.774533
  C    -1.609238   -2.343904    2.642787
  C    -1.493344   -3.545324    3.326102
  C    -2.489787   -3.981463    4.184663
  C    -3.615099   -3.201976    4.403948
  C    -3.747223   -1.995060    3.745875
  C    -2.761799   -1.580111    2.855960
  N    -2.986853   -0.338592    2.173265
  O    -3.527301    0.559713    2.797006
  O    -2.628854   -0.233651    1.008893
  C    -3.683248    2.237368   -1.276491
  N    -2.405192    2.895434   -1.393026
  H    -1.881193    3.014710   -0.539734
  H    -3.574919    1.304281   -0.719147
  H    -4.391589    2.882878   -0.756775
  H    -4.048560    2.027786   -2.280134
  C     1.292011    4.151784   -4.279736
  O     2.215022    4.477979   -3.546419
  C     1.392002    4.174082   -5.781840
  H     2.207634    3.523329   -6.089404
  H     0.472172    3.858491   -6.260692
  H     1.644370    5.182934   -6.100769

----------------------------
CARTESIAN COORDINATES (A.U.)
----------------------------
  NO LB    ZA    FRAG    MASS        X           Y           Z
   0 H   1.0000    0     1.008   -1.550676   -3.393215    1.383368
   1 H   1.0000    0     1.008   -1.145272   -7.828279    6.022140
   2 H   1.0000    0     1.008   -0.730696    3.588859    5.394670
   3 H   1.0000    0     1.008    0.033416    8.928130   -1.570768
   4 H   1.0000    0     1.008    0.719070   -4.718296    3.501402
   5 H   1.0000    0     1.008   -0.283178    7.259322    2.560742
   6 H   1.0000    0     1.008    1.236519   -1.333943   -0.696273
   7 H   1.0000    0     1.008    2.690518    7.602742   -3.078772
   8 H   1.0000    0     1.008   -8.283334   -6.671563    9.608462
   9 H   1.0000    0     1.008    1.632025    2.301004   -3.504182
  10 H   1.0000    0     1.008   -8.712195   -2.578350    7.361200
  11 H   1.0000    0     1.008   -1.245177    6.550869   -8.483255
  12 H   1.0000    0     1.008   -4.493677   -9.304325    8.875573
  13 N   7.0000    0    14.007    0.138108    7.054431   -7.215305
[...]
  26 C   6.0000    0    12.011   -3.064887   -4.450386    5.011760
  27 C   6.0000    0    12.011   -2.720553   -6.723499    6.270989
  28 C   6.0000    0    12.011   -4.514621   -7.633495    7.947652
  29 C   6.0000    0    12.011   -6.680896   -6.245743    8.447818
  30 C   6.0000    0    12.011   -7.059427   -3.968465    7.234235
  31 C   6.0000    0    12.011   -5.284913   -3.092026    5.496368
  32 N   7.0000    0    14.007   -5.851628   -0.774677    4.248614
  33 O   8.0000    0    15.999   -7.080279    0.807417    5.412519
  34 O   8.0000    0    15.999   -5.171153   -0.458569    2.057139
  35 C   6.0000    0    12.011   -6.974768    4.422105   -2.437260
  36 N   7.0000    0    14.007   -4.545765    5.634151   -2.679380
  37 H   1.0000    0     1.008   -3.558231    5.878014   -1.067224
  38 H   1.0000    0     1.008   -6.785506    2.663076   -1.373819
  39 H   1.0000    0     1.008   -8.290101    5.665663   -1.455787
  40 H   1.0000    0     1.008   -7.682278    4.018246   -4.325625
  41 C   6.0000    0    12.011    2.532533    7.781815   -8.111538
  42 O   8.0000    0    15.999    4.269856    8.388047   -6.700418
  43 C   6.0000    0    12.011    2.784439    7.769502  -10.938945
  44 H   1.0000    0     1.008    4.296616    6.478571  -11.462737
  45 H   1.0000    0     1.008    1.046575    7.218426  -11.872569
  46 H   1.0000    0     1.008    3.346289    9.647020  -11.559996

      -----------------------------------------------------------      
     |                   =====================                   |     
     |                           x T B                           |     
     |                   =====================                   |     
     |                         S. Grimme                         |     
     |          Mulliken Center for Theoretical Chemistry        |     
     |                    University of Bonn                     |     
      -----------------------------------------------------------      

   * xtb version 6.7.1 (edcfbbe) compiled by 'albert@albert-system' on 2024-07-22

   xtb is free software: you can redistribute it and/or modify it under
   the terms of the GNU Lesser General Public License as published by
   the Free Software Foundation, either version 3 of the License, or
   (at your option) any later version.
   
   xtb is distributed in the hope that it will be useful,
   but WITHOUT ANY WARRANTY; without even the implied warranty of
   MERCHANTABILITY or FITNESS FOR A PARTICULAR PURPOSE.  See the
   GNU Lesser General Public License for more details.
   
   Cite this work as:
   * C. Bannwarth, E. Caldeweyher, S. Ehlert, A. Hansen, P. Pracht,
     J. Seibert, S. Spicher, S. Grimme, WIREs Comput. Mol. Sci., 2020, 11,
     e01493. DOI: 10.1002/wcms.1493
   
   for GFN2-xTB:
   * C. Bannwarth, S. Ehlert and S. Grimme., J. Chem. Theory Comput., 2019,
     15, 1652-1671. DOI: 10.1021/acs.jctc.8b01176
   for GFN1-xTB:
   * S. Grimme, C. Bannwarth, P. Shushkov, J. Chem. Theory Comput., 2017,
     13, 1989-2009. DOI: 10.1021/acs.jctc.7b00118
   for GFN0-xTB:
   * P. Pracht, E. Caldeweyher, S. Ehlert, S. Grimme, ChemRxiv, 2019, preprint.
     DOI: 10.26434/chemrxiv.8326202.v1
   for GFN-FF:
   * S. Spicher and S. Grimme, Angew. Chem. Int. Ed., 2020, 59, 15665-15673.
     DOI: 10.1002/anie.202004239
   
   for ALPB and GBSA implicit solvation:
   * S. Ehlert, M. Stahn, S. Spicher, S. Grimme, J. Chem. Theory Comput.,
     2021, 17, 4250-4261. DOI: 10.1021/acs.jctc.1c00471
   
   for ddCOSMO and CPCM-X implicit solvation:
   * M. Stahn, S. Ehlert, S. Grimme, J. Phys. Chem. A,
     2023, XX, XXXX-XXXX. DOI: 10.1021/acs.jpca.3c04382
   
   for DFT-D4:
   * E. Caldeweyher, C. Bannwarth and S. Grimme, J. Chem. Phys., 2017,
     147, 034112. DOI: 10.1063/1.4993215
   * E. Caldeweyher, S. Ehlert, A. Hansen, H. Neugebauer, S. Spicher,
     C. Bannwarth and S. Grimme, J. Chem. Phys., 2019, 150, 154122.
     DOI: 10.1063/1.5090222
   * E. Caldeweyher, J.-M. Mewes, S. Ehlert and S. Grimme, Phys. Chem. Chem. Phys.
     2020, 22, 8499-8512. DOI: 10.1039/D0CP00502A
   
   for sTDA-xTB:
   * S. Grimme and C. Bannwarth, J. Chem. Phys., 2016, 145, 054103.
     DOI: 10.1063/1.4959605
   
   in the mass-spec context:
   * V. Asgeirsson, C. Bauer and S. Grimme, Chem. Sci., 2017, 8, 4879.
     DOI: 10.1039/c7sc00601b
   * J. Koopman and S. Grimme, ACS Omega 2019, 4, 12, 15120-15133.
     DOI: 10.1021/acsomega.9b02011
   
   for metadynamics refer to:
   * S. Grimme, J. Chem. Theory Comput., 2019, 155, 2847-2862
     DOI: 10.1021/acs.jctc.9b00143
   
   for SPH calculations refer to:
   * S. Spicher and S. Grimme, J. Chem. Theory Comput., 2021, 17, 1701-1714
     DOI: 10.1021/acs.jctc.0c01306
   
   for ONIOM refer to:
   * C. Plett, A. Katbashev, S. Ehlert, S. Grimme, M. Bursch,
     Phys. Chem. Chem. Phys., 2023, 25, 17860-17868. DOI: 10.1039/D3CP02178E
   
   for DIPRO refer to:
   * J. Kohn, N. Gildemeister, S. Grimme, D. Fazzi, A. Hansen,
     J. Chem. Phys., 2023, just accepted.
   
   for PTB refer to:
   * S. Grimme, M. Mueller, A. Hansen, J. Chem. Phys., 2023, 158, 124111.
     DOI: 10.1063/5.0137838
   
   with help from (in alphabetical order)
   P. Atkinson, C. Bannwarth, F. Bohle, G. Brandenburg, E. Caldeweyher
   M. Checinski, S. Dohm, S. Ehlert, S. Ehrlich, I. Gerasimov, C. Hölzer
   A. Katbashev, J. Kohn, J. Koopman, C. Lavigne, S. Lehtola, F. März, M. Müller,
   F. Musil, H. Neugebauer, J. Pisarek, C. Plett, P. Pracht, F. Pultar,
   J. Seibert, P. Shushkov, S. Spicher, M. Stahn, M. Steiner, T. Strunk,
   J. Stückrath, T. Rose, and J. Unsleber
   
 * started run on 2025/07/16 at 15:48:05.726     
   ID    Z sym.   atoms
    1    1 H      1-13, 38-41, 45-47
    2    7 N      14, 33, 37
    3    6 C      15-17, 19-24, 26-32, 36, 42, 44
    4    8 O      18, 25, 34, 35, 43

           -------------------------------------------------
          |                Calculation Setup                |
           -------------------------------------------------

          program call               : /home/esp/bin/orca_6_1_0/otool_xtb /home/esp/scriptDevelopment/drFrankenstein/11_PCY_CHARMM/04_torsion_scanning/torsion_NH1-CT1-CG321-CG2R61/scans_PCY_conformer_24/PCY_conformer_24_opt/orca_opt_XTB.xyz --grad -c 0 -u 0 -P 1 --namespace /home/esp/scriptDevelopment/drFrankenstein/11_PCY_CHARMM/04_torsion_scanning/torsion_NH1-CT1-CG321-CG2R61/scans_PCY_conformer_24/PCY_conformer_24_opt/orca_opt --input /home/esp/scriptDevelopment/drFrankenstein/11_PCY_CHARMM/04_torsion_scanning/torsion_NH1-CT1-CG321-CG2R61/scans_PCY_conformer_24/PCY_conformer_24_opt/orca_opt_XTB.input.tmp --alpb WATER --acc 0.200000
          calculation namespace      : /home/esp/scriptDevelopment/drFrankenstein/11_PCY_CHARMM/04_torsion_scanning/torsion_NH1-CT1-CG321-CG2R61/scans_PCY_conformer_24/PCY_conformer_24_opt/orca_opt
          coordinate file            : /home/esp/scriptDevelopment/drFrankenstein/11_PCY_CHARMM/04_torsion_scanning/torsion_NH1-CT1-CG321-CG2R61/scans_PCY_conformer_24/PCY_conformer_24_opt/orca_opt_XTB.xyz
          omp threads                :                     1


           -------------------------------------------------
          |                 G F N 2 - x T B                 |
           -------------------------------------------------

        Reference                      10.1021/acs.jctc.8b01176
      * Hamiltonian:
        H0-scaling (s, p, d)           1.850000    2.230000    2.230000
        zeta-weighting                 0.500000
      * Dispersion:
        s8                             2.700000
        a1                             0.520000
        a2                             5.000000
        s9                             5.000000
      * Repulsion:
        kExp                           1.500000    1.000000
        rExp                           1.000000
      * Coulomb:
        alpha                          2.000000
        third order                    shell-resolved
        anisotropic                    true
        a3                             3.000000
        a5                             4.000000
        cn-shift                       1.200000
        cn-exp                         4.000000
        max-rad                        5.000000

      * Solvation model:               ALPB
        Solvent                        WATER
        Parameter file                 internal GFN2-xTB/ALPB
        Dielectric constant                8.0200E+01
        Reference state                gsolv [1 M gas/solution]
        Free energy shift                  1.0808E-03 Eh       6.7819E-01 kcal/mol
        Temperature                        2.9815E+02 K
        Density                            1.0000E+00 kg/L
        Solvent mass                       1.8000E+01 g/mol
        Interaction kernel             P16
        Born radius scaling (c1)           1.4744E+00
        Born radii integrator          GBOBC
        Born offset                        0.0000E+00 a0       0.0000E+00 AA
        H-bond correction              true
        Ion screening                  false
        Surface tension                    1.0000E-05 Eh       1.5569E+01 dyn/cm
        Grid points                               230 per atom
q/qsh data taken from xtbrestart
CAMM data taken from xtbrestart

          ...................................................
          :                      SETUP                      :
          :.................................................:
          :  # basis functions                 128          :
          :  # atomic orbitals                 128          :
          :  # shells                           74          :
          :  # electrons                       141          :
          :  max. iterations                   250          :
          :  Hamiltonian                  GFN2-xTB          :
          :  restarted?                       true          :
          :  GBSA solvation                   true          :
          :  PC potential                    false          :
          :  electronic temp.          300.0000000     K    :
          :  accuracy                    0.2000000          :
          :  -> integral cutoff          0.3198970E+02      :
          :  -> integral neglect         0.2000000E-08      :
          :  -> SCF convergence          0.2000000E-06 Eh   :
          :  -> wf. convergence          0.2000000E-04 e    :
          :  Broyden damping             0.4000000          :
          :  net charge                          0          :
          :  unpaired electrons                  0          :
          ...................................................

 iter      E             dE          RMSdq      gap      omega  full diag
   1    -80.9425081 -0.809425E+02  0.461E-03    0.13       0.0  T
   2    -80.9425063  0.173455E-05  0.652E-03    0.13       2.2  T
   3    -80.9425078 -0.149335E-05  0.354E-03    0.13       4.1  T
   4    -80.9425082 -0.417849E-06  0.337E-04    0.13      43.2  T
   5    -80.9425082 -0.335731E-08  0.123E-04    0.13     118.8  T
   6    -80.9425082 -0.307907E-09  0.581E-05    0.13     251.0  T

   *** convergence criteria satisfied after 6 iterations ***

         #    Occupation            Energy/Eh            Energy/eV
      -------------------------------------------------------------
         1        2.0000           -0.7741850             -21.0666
       ...           ...                  ...                  ...
        65        2.0000           -0.4243256             -11.5465
        66        2.0000           -0.4160665             -11.3217
        67        2.0000           -0.4129731             -11.2376
        68        2.0000           -0.4047953             -11.0150
        69        2.0000           -0.4015084             -10.9256
        70        2.0000           -0.3822428             -10.4014
        71        0.9224           -0.3301814              -8.9847 (HOMO)
        72        0.0776           -0.3254784              -8.8567 (LUMO)
        73                         -0.2510046              -6.8302
        74                         -0.2405316              -6.5452
        75                         -0.2315244              -6.3001
        76                         -0.2249827              -6.1221
       ...                                ...                  ...
       128                          0.6557090              17.8428
      -------------------------------------------------------------
                  HL-Gap            0.0047030 Eh            0.1280 eV
             Fermi-level           -0.3420236 Eh           -9.3069 eV

 SCC (total)                   0 d,  0 h,  0 min,  0.099 sec
 SCC setup                      ...        0 min,  0.002 sec (  2.173%)
 Dispersion                     ...        0 min,  0.001 sec (  0.623%)
 classical contributions        ...        0 min,  0.000 sec (  0.087%)
 integral evaluation            ...        0 min,  0.010 sec ( 10.035%)
 iterations                     ...        0 min,  0.059 sec ( 60.171%)
 molecular gradient             ...        0 min,  0.026 sec ( 26.066%)
 printout                       ...        0 min,  0.001 sec (  0.817%)

         :::::::::::::::::::::::::::::::::::::::::::::::::::::
         ::                     SUMMARY                     ::
         :::::::::::::::::::::::::::::::::::::::::::::::::::::
         :: total energy             -79.898719268896 Eh    ::
         :: total w/o Gsasa/hb       -79.895752236928 Eh    ::
         :: gradient norm              0.000285432138 Eh/a0 ::
         :: HOMO-LUMO gap              0.127975726914 eV    ::
         ::.................................................::
         :: SCC energy               -80.942011764552 Eh    ::
         :: -> isotropic ES            0.187435346064 Eh    ::
         :: -> anisotropic ES         -0.000696389829 Eh    ::
         :: -> anisotropic XC          0.021450853157 Eh    ::
         :: -> dispersion             -0.051963943747 Eh    ::
         :: -> Gsolv                  -0.033391563176 Eh    ::
         ::    -> Gelec               -0.030424531209 Eh    ::
         ::    -> Gsasa                0.002647108396 Eh    ::
         ::    -> Ghb                 -0.006694900062 Eh    ::
         ::    -> Gshift               0.001080759698 Eh    ::
         :: repulsion energy           1.043292495657 Eh    ::
         :: add. restraining           0.000000000000 Eh    ::
         :: total charge               0.000000000000 e     ::
         :::::::::::::::::::::::::::::::::::::::::::::::::::::


Property printout bound to 'properties.out'

           -------------------------------------------------
          | TOTAL ENERGY              -79.898719268896 Eh   |
          | GRADIENT NORM               0.000285432138 Eh/α |
          | HOMO-LUMO GAP               0.127975726914 eV   |
           -------------------------------------------------

------------------------------------------------------------------------
 * finished run on 2025/07/16 at 15:48:05.860     
------------------------------------------------------------------------
 total:
 * wall-time:     0 d,  0 h,  0 min,  0.133 sec
 *  cpu-time:     0 d,  0 h,  0 min,  0.072 sec
 * ratio c/w:     0.543 speedup
 SCF:
 * wall-time:     0 d,  0 h,  0 min,  0.099 sec
 *  cpu-time:     0 d,  0 h,  0 min,  0.057 sec
 * ratio c/w:     0.575 speedup


-------------------------   --------------------
FINAL SINGLE POINT ENERGY       -79.898719268900
-------------------------   --------------------


-------------
DIPOLE MOMENT
-------------
                                X             Y             Z
Total Dipole Moment    :      0.16100      -2.42100       1.11100
                        -----------------------------------------
Magnitude (a.u.)       :      2.66861
Magnitude (Debye)      :      6.78307

                                *** OPTIMIZATION RUN DONE ***


--------------------------------
SUGGESTED CITATIONS FOR THIS RUN
--------------------------------

Below you find a list of papers that are relevant to this ORCA run
We neither can nor want to force you to cite these papers, but we appreciate if you do
You receive ORCA, which is the product of decades of hard work by many enthusiastic individuals, for free
The only thing we kindly ask in return is that you cite our papers,
We deeply appreciate it, if you show your appreciation for ORCA by not just citing the generic ORCA reference.

Please note that relegating all ORCA citations to the supporting information does *not* help us.
SI sections are not indexed - citations you put there will not count into any citation statistics
But we need these citations in order to attract the funding resources that allow us to do what we are doing

Therefore, if you are a happy ORCA user, please consider citing a few of the papers listed below in the main body of your paper

In addition to the list printed below, the program has created the file /home/esp/scriptDevelopment/drFrankenstein/11_PCY_CHARMM/04_torsion_scanning/torsion_NH1-CT1-CG321-CG2R61/scans_PCY_conformer_24/PCY_conformer_24_opt/orca_opt.bibtex that contains the list in bibtex format
You can import this file easily into all common literature databanks and citation aid programs


List of essential papers. We consider these as the minimum necessary citations

  1. Bannwarth, C.; Ehlert, S.; Grimme, S.
     GFN2-xTB—An Accurate and Broadly Parametrized Self-Consistent Tight-Binding Quantum Chemical Method with Multipole Electrostatics and Density-Dependent Dispersion Contributions
     J. Chem. Theory Comput. 2019 15(3), 1652-1671
     doi.org/10.1021/acs.jctc.8b01176
  2. Neese, F.
     Software update: the ORCA program system, version 6.0
     WIRES Comput. Molec. Sci. 2025 15(1), e70019
     doi.org/10.1002/wcms.7019

List of papers to cite with high priority. The work reported in these papers was absolutely
necessary for this run to complete.
Our perspective: the developers of density functionals and basis sets usually get cited in chemistry papers
Good! But without the algorithms to do something with them, the functionals or basis sets would not do anything.
Hence, in our opinion, the algorithm design and method developments papers are equally worthy of getting cited

  1. Bannwarth, C.; Caldeweyher, E.; Ehlert, S.; Hansen, A.; Pracht, P.; Seibert, J.; Spicher, S.; Grimme, S.
     Extended tight-binding quantum chemistry methods
     WIRES Comput. Molec. Sci. 2020 11(2), e1493
     doi.org/10.1002/wcms.1493

List of suggested additional citations. These are papers that are important in the 'surrounding' of 
of this run, or papers that preceded the highly important papers. If you like your results we are grateful for a citation.

  1. Neese, F.
     The ORCA program system
     WIRES Comput. Molec. Sci. 2012 2(1), 73-78
     doi.org/10.1002/wcms.81
  2. Neese, F.
     Software update: the ORCA program system, version 4.0
     WIRES Comput. Molec. Sci. 2018 8(1), 1-6
     doi.org/10.1002/wcms.1327
  3. Neese, F.; Wennmohs, F.; Becker, U.; Riplinger, C.
     The ORCA quantum chemistry program package
     J. Chem. Phys. 2020 152(22), 224108
     doi.org/10.1063/5.0004608
  4. Neese, F.
     Software update: The ORCA program system—Version 5.0
     WIRES Comput. Molec. Sci. 2022 12(1), e1606
     doi.org/10.1002/wcms.1606

List of optional additional citations

  1. Neese, F.
     Approximate second-order SCF convergence for spin unrestricted wavefunctions
     Chem. Phys. Lett. 2000 325(1-3), 93-98
     doi.org/10.1016/s0009-2614(00)00662-x

Timings for individual modules:

Sum of individual times          ...        1.717 sec (=   0.029 min)
Geometry relaxation              ...        0.192 sec (=   0.003 min)  11.2 %
XTB module                       ...        1.524 sec (=   0.025 min)  88.8 %
                             ****ORCA TERMINATED NORMALLY****
TOTAL RUN TIME: 0 days 0 hours 0 minutes 1 seconds 815 msec
