
                                 *****************
                                 * O   R   C   A *
                                 *****************

                                            #,                                       
                                            ###                                      
                                            ####                                     
                                            #####                                    
                                            ######                                   
                                           ########,                                 
                                     ,,################,,,,,                         
                               ,,#################################,,                 
                          ,,##########################################,,             
                       ,#########################################, ''#####,          
                    ,#############################################,,   '####,        
                  ,##################################################,,,,####,       
                ,###########''''           ''''###############################       
              ,#####''   ,,,,##########,,,,          '''####'''          '####       
            ,##' ,,,,###########################,,,                        '##       
           ' ,,###''''                  '''############,,,                           
         ,,##''                                '''############,,,,        ,,,,,,###''
      ,#''                                            '''#######################'''  
     '                                                          ''''####''''         
             ,#######,   #######,   ,#######,      ##                                
            ,#'     '#,  ##    ##  ,#'     '#,    #''#        ,####,    ,#,          
            ##       ##  ##   ,#'  ##            #'  '#       #'       ,# #          
            ##       ##  #######   ##           ,######,      #####,      #          
            '#,     ,#'  ##    ##  '#,     ,#' ,#      #,     #,   #      #          
             '#######'   ##     ##  '#######'  #'      '#     '####' #    #          



                #########################################################
                #                        -***-                          #
                #          Department of theory and spectroscopy        #
                #                                                       #
                #                      Frank Neese                      #
                #                                                       #
                #     Directorship, Architecture, Infrastructure        #
                #                    SHARK, DRIVERS                     #
                #        Core code/Algorithms in most modules           #
                #                                                       #
                #        Max Planck Institute fuer Kohlenforschung      #
                #                Kaiser Wilhelm Platz 1                 #
                #                 D-45470 Muelheim/Ruhr                 #
                #                      Germany                          #
                #                                                       #
                #                  All rights reserved                  #
                #                        -***-                          #
                #########################################################


                         Program Version 6.1.0  -  RELEASE   -
                                (GIT: $679e74b$)
                          ($2025-06-10 18:02:51 +0200$)


 With contributions from (in alphabetic order):
[Max-Planck-Institut fuer Kohlenforschung]                               
  Daniel Aravena         : Magnetic Suceptibility                        
  Michael Atanasov       : Ab Initio Ligand Field Theory (pilot matlab implementation)
  Alexander A. Auer      : GIAO ZORA, VPT2 properties, NMR spectrum      
  Ute Becker             : All parallelization in ORCA, NUMFREQ, NUMCALC 
  Giovanni Bistoni       : ED, misc. LED, open-shell LED, HFLD           
  Dmytro Bykov           : pre 5.0 version of the SCF Hessian            
  Marcos Casanova-Páez   : Triplet and SCS-CIS(D). UHF-(DLPNO)-IP/EA/STEOM-CCSD. UHF-CVS-IP/STEOM-CCSD   
  Vijay G. Chilkuri      : MRCI spin determinant printing, contributions to CSF-ICE 
  Pauline Colinet        : FMM embedding                                 
  Dipayan Datta          : RHF DLPNO-CCSD density                        
  Achintya Kumar Dutta   : EOM-CC, STEOM-CC                              
  Nicolas Foglia         : Exact transition moments, OPA infrastructure, MCD improvements    
  Dmitry Ganyushin       : Spin-Orbit,Spin-Spin,Magnetic field MRCI      
  Miquel Garcia-Rates    : C-PCM and meta-GGA Hessian, CCSD/C-PCM, Gaussian charge scheme 
  Tiago L. C. Gouveia    : GS-ROHF, GS-ROCIS                             
  Yang Guo               : DLPNO-NEVPT2, F12-NEVPT2, CIM, IAO-localization        
  Andreas Hansen         : Spin unrestricted coupled pair/coupled cluster methods 
  Ingolf Harden          : AUTO-CI MPn and infrastructure                
  Benjamin Helmich-Paris : MC-RPA, TRAH-(SCF,CASSCF), AVAS, COSX integrals, SCF dyn. polar., MC-PDFT, srDFT 
  Lee Huntington         : MR-EOM, pCC                                   
  Robert Izsak           : Overlap fitted RIJCOSX, COSX-SCS-MP3, EOM     
  Riya Kayal             : Wick's Theorem for AUTO-CI, AUTO-CI UHF-CCSDT 
  Emily Kempfer          : AUTO-CI RHF CISDT and CCSDT, approximate NEVPT4
  Christian Kollmar      : KDIIS, OOCD, Brueckner-CCSD(T), CCSD density, CASPT2, CASPT2-K, improved NEVPT2 
  Axel Koslowski         : Symmetry handling                             
  Simone Kossmann        : meta-GGA functionals, TD-DFT gradient, OOMP2, (MP2 Hessian; deprecated post 5.0) 
  Lucas Lang             : DCDCAS, Hyperfine gauge corrections, ICE-SOC+SSC
  Marvin Lechner         : AUTO-CI (C++ implementation), FIC-MRCC        
  Spencer Leger          : CASSCF response                               
  Dagmar Lenk            : GEPOL surface, SMD, ORCA-2-JSON               
  Dimitrios Liakos       : Extrapolation schemes; Compound Job, Property file
  Dimitrios Manganas     : Further ROCIS development; embedding schemes. LFT, Crystal Embedding 
  Dimitrios Pantazis     : SARC Basis sets                               
  Anastasios Papadopoulos: AUTO-CI, single reference methods and gradients 
  Taras Petrenko         : pre 6.0 DFT Hessian and TD-DFT gradient,  ECA, NRVS 
  Petra Pikulova         : Analytic Raman intensities                    
  Peter Pinski           : DLPNO-MP2, DLPNO-MP2 Gradient                 
  Shashank Vittal Rao    : ES-AILFT, MagRelax                            
  Christoph Reimann      : Effective Core Potentials                     
  Marius Retegan         : Local ZFS, SOC                                
  Christoph Riplinger    : Optimizer, TS searches, QM/MM, DLPNO-CCSD(T), (RO)-DLPNO pert. Triples 
  Michael Roemelt        : Original ROCIS implementation, recursive CI coupling coefficients
  Masaaki Saitow         : Open-shell DLPNO-CCSD energy and density      
  Barbara Sandhoefer     : DKH picture change effects                    
  Yorick L. A. Schmerwitz: GMF and freeze-and-release deltaSCF, NEB S-IDPP initial path                    
  Kantharuban Sivalingam : CASSCF convergence/infrastructure, NEVPT2, NEVPT3, NEVPT4(SD), FIC-MRCI and CEPA variants
  Bernardo de Souza      : ESD, SOC TD-DFT                               
  Georgi L. Stoychev     : AutoAux, RI-MP2 NMR, DLPNO-MP2 response, X2C  
  Van Anh Tran           : RI-MP2 g-tensors                              
  Willem Van den Heuvel  : Paramagnetic NMR                              
  Zikuan Wang            : NOTCH, Electric field optimization            
  Frank Wennmohs         : Technical directorship and infrastructure     
  Hang Xu                : AUTO-CI-Response properties                   
                                                                         
[FACCTs GmbH]                                                            
  Markus Bursch, Nicolas Foglia, Miquel Garcia-Rates, Ingolf Harden, Hagen Neugebauer, Anastasios Papadopoulos, 
  Christoph Riplinger, Bernardo de Souza, Georgi L. Stoychev                                                    
                                                                 
  APM, various basis sets, CI-OPT, improved COSX, DLPNO-Multilevel,           
  DOCKER, DRACO, updates on ESD, Fragmentator, GOAT, IRC, LR-CPCM, L-BFGS, MBIS, meta-GGA TD-DFT gradient, ML-optimized integration grids, 
  MM, NACMEs, nearIR, NEB, NEB-TS, NL-DFT gradient (VV10), 2- and 3-layer-ONIOM, interface openCOSMO-RS, QMMM,   
  Crystal-QMMM, RESP, rigid body optimization, SF, symmetry and pop. for TD-DFT, various functionals, SOLVATOR                                   
                                                                         
[Other institutions]                                                     
  V. Asgeirsson          : NEB                                           
  Christoph Bannwarth    : sTDA-DFT, sTD-DFT, PBEh-3c, B97-3c, D3        
  Giovanni Bistoni       : ETS/NOCV, ADLD/ADEX, COVALED                  
  Martin Brehm           : Molecular dynamics                            
  Ronald Cardenas        : ETS/NOCV                                      
  Martina Colucci        : COVALED                                       
  Sebastian Ehlert       : rSCAN, r2SCAN, r2SCAN-3c, D4, dhf basis sets  
  Marvin Friede          : D4 for Fr, Ra, Ac-Lr                          
  Lars Goerigk           : TD-DFT with DH, B97 family of functionals     
  Stefan Grimme          : VdW corrections, initial TS optimization, DFT functionals, gCP, sTDA/sTD-DF 
  Waldemar Hujo          : DFT-NL                                        
  H. Jonsson             : NEB                                           
  Holger Kruse           : gCP                                           
  Marcel Mueller         : wB97X-3c, vDZP basis set                      
  Hagen Neugebauer       : wr2SCAN, Native XTB                           
  Gianluca Regni         : ADLD/ADEX                                     
  Tobias Risthaus        : pre 6.0 range-separated hybrid DFT and stability analysis
  Lukas Wittmann         : regularized MP2, r2SCAN double-hybrids, wr2SCAN        
                                                                         
We gratefully acknowledge several colleagues who have allowed us to      
interface, adapt or use parts of their codes:                            
  Ed Valeev, F. Pavosevic, A. Kumar             : LibInt (2-el integral package), F12 methods 
  Garnet Chan, S. Sharma, J. Yang, R. Olivares  : DMRG                   
  Ulf Ekstrom                                   : XCFun DFT Library      
  Mihaly Kallay                                 : mrcc  (arbitrary order and MRCC methods)
  Frank Weinhold                                : gennbo (NPA and NBO analysis)           
  Simon Mueller                                 : openCOSMO-RS                            
  Christopher J. Cramer and Donald G. Truhlar   : smd solvation model                     
  S Lehtola, MJT Oliveira, MAL Marques          : LibXC Library                           
  Liviu Ungur et al                             : ANISO software                          


 Your calculation uses the libint2 library for the computation of 2-el integrals
 For citations please refer to: http://libint.valeyev.net

 Your ORCA version has been built with support for libXC version: 7.0.0
 For citations please refer to: https://libxc.gitlab.io

 This ORCA versions uses:
   CBLAS   interface :  Fast vector & matrix operations
   LAPACKE interface :  Fast linear algebra routines
   SCALAPACK package :  Parallel linear algebra routines
   Shared memory     :  Shared parallel matrices
   BLAS/LAPACK       :  OpenBLAS 0.3.29  USE64BITINT DYNAMIC_ARCH NO_AFFINITY Haswell SINGLE_THREADED
        Core in use  :  Haswell
   Copyright (c) 2011-2014, The OpenBLAS Project


  ***********************************
  * Starting time: Wed Jul 16 15:48:04 2025
  * Host name:     MONSTER
  * Process ID:    442513
  * Working dir.:  /home/esp/scriptDevelopment/drFrankenstein
  ***********************************



***************************************
The coordinates will be read from file: /home/esp/scriptDevelopment/drFrankenstein/11_PCY_CHARMM/03_GOAT_conformers/PCY_conformer_4.xyz
***************************************


Your calculation utilizes the semiempirical GFN2-xTB method
Please cite in your paper:
Bannwarth, C.; Ehlert S.; Grimme, S. J. Chem. Theory Comput. 2019, 15, 1652.
   

================================================================================

================================================================================
                                        WARNINGS
                       Please study these warnings very carefully!
================================================================================


WARNING: Geometry Optimization
  ===> : Switching off AutoStart
         For restart on a previous wavefunction, please use MOREAD

WARNING: Found dipole moment calculation with XTB calculation
  ===> : Switching off dipole moment calculation


================================================================================
                                       INPUT FILE
================================================================================
NAME = /home/esp/scriptDevelopment/drFrankenstein/11_PCY_CHARMM/04_torsion_scanning/torsion_NH1-CT1-CG321-CG2R61/scans_PCY_conformer_4/PCY_conformer_4_opt/orca_opt.inp
|  1>  # --------------------------------- #
|  2>  #  Geometry Optimisation            #
|  3>  # --------------------------------- #
|  4> ! XTB2 ALPB(water) Opt
|  5> *xyzfile 0 1 /home/esp/scriptDevelopment/drFrankenstein/11_PCY_CHARMM/03_GOAT_conformers/PCY_conformer_4.xyz
|  6> 
|  7> 
|  8>                          ****END OF INPUT****
================================================================================

                       *****************************
                       * Geometry Optimization Run *
                       *****************************

Geometry optimization settings:
Update method            Update   .... BFGS
Choice of coordinates    CoordSys .... (2022) Redundant Internals
Initial Hessian          InHess   .... Almloef's Model
Max. no of cycles        MaxIter  .... 141

Convergence Tolerances:
Energy Change            TolE     ....  5.0000e-06 Eh
Max. Gradient            TolMAXG  ....  3.0000e-04 Eh/bohr
RMS Gradient             TolRMSG  ....  1.0000e-04 Eh/bohr
Max. Displacement        TolMAXD  ....  4.0000e-03 bohr
RMS Displacement         TolRMSD  ....  2.0000e-03 bohr
Strict Convergence                .... False

------------------------------------------------------------------------------
                        ORCA OPTIMIZATION COORDINATE SETUP
------------------------------------------------------------------------------

The optimization will be done in redundant internal coordinates (2022)
Making redundant internal coordinates   ...  (2022 redundants) done
Evaluating the initial hessian          ...  (Almloef) done
Evaluating the coordinates              ...  done
Calculating the B-matrix                .... done
Calculating the G-matrix                .... done
The number of degrees of freedom        ....  226

    -----------------------------------------------------------------
                    Redundant Internal Coordinates


    -----------------------------------------------------------------
         Definition                    Initial Value    Approx d2E/dq
    -----------------------------------------------------------------
      1. B(N  13,H  11)                  1.0267         0.406955   
      2. B(C  14,N  13)                  1.3620         0.620303   
      3. B(C  15,C  14)                  1.4522         0.497171   
      4. B(C  16,H   3)                  1.0956         0.352792   
      5. B(C  16,H   7)                  1.0927         0.356590   
      6. B(C  16,C  14)                  1.4887         0.434771   
      7. B(O  17,C  15)                  1.2368         0.982377   
      8. B(O  17,H  11)                  1.9843         0.012071   
      9. B(C  18,C  16)                  1.5097         0.402519   
     10. B(C  19,C  18)                  1.3924         0.619347   
     11. B(C  19,H   5)                  1.0796         0.374163   
     12. B(C  20,C  19)                  1.3767         0.656010   
     13. B(C  20,H   2)                  1.0784         0.375806   
     14. B(C  21,C  20)                  1.3964         0.610284   
     15. B(C  22,C  21)                  1.3891         0.626914   
     16. B(C  22,H   6)                  1.0786         0.375458   
     17. B(C  23,C  22)                  1.3858         0.634398   
     18. B(C  23,C  18)                  1.3867         0.632451   
     19. B(C  23,H   9)                  1.0814         0.371704   
     20. B(O  24,C  21)                  1.3640         0.615685   
     21. B(C  25,O  24)                  1.4081         0.523529   
     22. B(C  25,H   4)                  1.0955         0.352880   
     23. B(C  25,H   0)                  1.0972         0.350695   
     24. B(C  26,C  25)                  1.5093         0.403109   
     25. B(C  27,C  26)                  1.3910         0.622570   
     26. B(C  27,H   1)                  1.0791         0.374872   
     27. B(C  28,C  27)                  1.3826         0.642084   
     28. B(C  28,H  12)                  1.0791         0.374796   
     29. B(C  29,C  28)                  1.3870         0.631825   
     30. B(C  29,H   8)                  1.0785         0.375678   
     31. B(C  30,C  29)                  1.3784         0.651896   
     32. B(C  30,H  10)                  1.0795         0.374308   
     33. B(C  31,C  30)                  1.3939         0.615891   
     34. B(C  31,C  26)                  1.4007         0.600803   
     35. B(N  32,C  31)                  1.4368         0.471153   
     36. B(O  33,N  32)                  1.2149         0.953451   
     37. B(O  34,N  32)                  1.2176         0.944216   
     38. B(N  36,C  35)                  1.4397         0.466215   
     39. B(N  36,C  15)                  1.3582         0.628922   
     40. B(H  37,N  36)                  1.0072         0.437220   
     41. B(H  38,C  35)                  1.0913         0.358368   
     42. B(H  39,C  35)                  1.0888         0.361662   
     43. B(H  40,C  35)                  1.0929         0.356260   
     44. B(C  41,N  13)                  1.3716         0.598828   
     45. B(O  42,C  41)                  1.2152         1.063625   
     46. B(C  43,C  41)                  1.5094         0.402950   
     47. B(H  44,C  43)                  1.0860         0.365430   
     48. B(H  45,C  43)                  1.0882         0.362524   
     49. B(H  46,C  43)                  1.0882         0.362553   
     50. A(H  11,N  13,C  41)          119.0057         0.352866   
     51. A(C  14,N  13,C  41)          131.7712         0.425789   
     52. A(H  11,N  13,C  14)          109.2219         0.354979   
     53. A(N  13,C  14,C  15)          111.4889         0.414581   
     54. A(N  13,C  14,C  16)          123.3303         0.404847   
     55. A(C  15,C  14,C  16)          125.1748         0.391910   
     56. A(O  17,C  15,N  36)          122.7920         0.466895   
     57. A(C  14,C  15,O  17)          119.7476         0.450288   
     58. A(C  14,C  15,N  36)          117.4343         0.415600   
     59. A(H   3,C  16,H   7)          107.8267         0.289460   
     60. A(H   3,C  16,C  14)          109.8523         0.331411   
     61. A(C  14,C  16,C  18)          111.9928         0.377772   
     62. A(H   3,C  16,C  18)          109.3899         0.327219   
     63. A(H   7,C  16,C  14)          108.1670         0.332000   
     64. A(H   7,C  16,C  18)          109.5148         0.327797   
     65. A(C  16,C  18,C  23)          121.4767         0.403336   
     66. A(C  19,C  18,C  23)          118.3903         0.435540   
     67. A(C  16,C  18,C  19)          120.1318         0.401850   
     68. A(C  18,C  19,C  20)          120.7862         0.438420   
     69. A(H   5,C  19,C  18)          119.4585         0.355144   
     70. A(H   5,C  19,C  20)          119.7550         0.358631   
     71. A(H   2,C  20,C  21)          118.3070         0.354520   
     72. A(C  19,C  20,C  21)          120.5453         0.437256   
     73. A(H   2,C  20,C  19)          121.1477         0.358898   
     74. A(C  22,C  21,O  24)          125.3068         0.431545   
     75. A(C  20,C  21,O  24)          115.6328         0.429467   
     76. A(C  20,C  21,C  22)          119.0595         0.433699   
     77. A(C  21,C  22,C  23)          119.8228         0.436735   
     78. A(H   6,C  22,C  23)          118.7897         0.356803   
     79. A(H   6,C  22,C  21)          121.3866         0.356085   
     80. A(C  18,C  23,C  22)          121.3924         0.437428   
     81. A(H   9,C  23,C  22)          118.7555         0.356195   
     82. A(H   9,C  23,C  18)          119.8483         0.356009   
     83. A(C  21,O  24,C  25)          118.7738         0.415148   
     84. A(H   0,C  25,H   4)          107.0362         0.288716   
     85. A(O  24,C  25,C  26)          113.5442         0.387793   
     86. A(H   4,C  25,C  26)          109.1206         0.327311   
     87. A(H   0,C  25,C  26)          111.1821         0.326977   
     88. A(H   4,C  25,O  24)          105.0236         0.339755   
     89. A(H   0,C  25,O  24)          110.5404         0.339403   
     90. A(C  27,C  26,C  31)          117.4770         0.431939   
     91. A(C  25,C  26,C  31)          123.3216         0.399808   
     92. A(C  25,C  26,C  27)          119.1986         0.402322   
     93. A(C  26,C  27,C  28)          121.5962         0.437136   
     94. A(H   1,C  27,C  28)          119.7385         0.357439   
     95. A(H   1,C  27,C  26)          118.6652         0.355571   
     96. A(C  27,C  28,C  29)          120.2847         0.438301   
     97. A(H  12,C  28,C  29)          120.1487         0.356450   
     98. A(H  12,C  28,C  27)          119.5666         0.357427   
     99. A(C  28,C  29,C  30)          119.3354         0.439502   
    100. A(H   8,C  29,C  30)          120.1167         0.358493   
    101. A(H   8,C  29,C  28)          120.5469         0.356593   
    102. A(C  29,C  30,C  31)          120.3555         0.437481   
    103. A(H  10,C  30,C  31)          118.2720         0.354830   
    104. A(H  10,C  30,C  29)          121.3712         0.358271   
    105. A(C  30,C  31,N  32)          116.7301         0.410125   
    106. A(C  26,C  31,N  32)          122.3253         0.408327   
    107. A(C  26,C  31,C  30)          120.9445         0.431103   
    108. A(O  33,N  32,O  34)          124.1206         0.493628   
    109. A(C  31,N  32,O  34)          118.3543         0.436877   
    110. A(C  31,N  32,O  33)          117.5249         0.437645   
    111. A(N  36,C  35,H  38)          110.3270         0.334115   
    112. A(H  39,C  35,H  40)          109.2542         0.290548   
    113. A(H  38,C  35,H  40)          109.0705         0.290131   
    114. A(N  36,C  35,H  40)          111.1515         0.333788   
    115. A(H  38,C  35,H  39)          109.5285         0.290817   
    116. A(N  36,C  35,H  39)          107.4797         0.334623   
    117. A(C  35,N  36,H  37)          117.7648         0.342413   
    118. A(C  15,N  36,H  37)          119.0164         0.360178   
    119. A(C  15,N  36,C  35)          121.7538         0.408233   
    120. A(O  42,C  41,C  43)          124.0845         0.439760   
    121. A(N  13,C  41,C  43)          112.0841         0.396994   
    122. A(N  13,C  41,O  42)          123.8314         0.469507   
    123. A(H  45,C  43,H  46)          108.5129         0.291457   
    124. A(H  44,C  43,H  46)          109.3183         0.291823   
    125. A(C  41,C  43,H  46)          110.0958         0.328753   
    126. A(H  44,C  43,H  45)          109.3457         0.291819   
    127. A(C  41,C  43,H  45)          110.2401         0.328749   
    128. A(C  41,C  43,H  44)          109.3081         0.329183   
    129. D(C  16,C  14,N  13,C  41)      0.3471         0.031160   
    130. D(C  15,C  14,N  13,C  41)   -178.8033         0.031160   
    131. D(C  16,C  14,N  13,H  11)    179.9365         0.031160   
    132. D(C  15,C  14,N  13,H  11)      0.7861         0.031160   
    133. D(N  36,C  15,C  14,N  13)   -179.4348         0.016834   
    134. D(O  17,C  15,C  14,C  16)    179.6302         0.016834   
    135. D(N  36,C  15,C  14,C  16)      1.4336         0.016834   
    136. D(O  17,C  15,C  14,N  13)     -1.2382         0.016834   
    137. D(H   7,C  16,C  14,C  15)    177.2223         0.013954   
    138. D(C  18,C  16,C  14,N  13)   -122.5877         0.013954   
    139. D(H   3,C  16,C  14,C  15)    -65.3238         0.013954   
    140. D(H   3,C  16,C  14,N  13)    115.6434         0.013954   
    141. D(H   7,C  16,C  14,N  13)     -1.8106         0.013954   
    142. D(C  19,C  18,C  16,H   3)    171.1171         0.012018   
    143. D(C  19,C  18,C  16,H   7)    -70.9093         0.012018   
    144. D(C  19,C  18,C  16,C  14)     49.0834         0.012018   
    145. D(C  23,C  18,C  16,H   7)    108.6964         0.012018   
    146. D(C  23,C  18,C  16,H   3)     -9.2771         0.012018   
    147. D(C  20,C  19,C  18,C  16)    179.9572         0.026540   
    148. D(H   5,C  19,C  18,C  23)   -179.4624         0.026540   
    149. D(C  20,C  19,C  18,C  23)      0.3395         0.026540   
    150. D(H   5,C  19,C  18,C  16)      0.1554         0.026540   
    151. D(C  21,C  20,C  19,C  18)     -0.1920         0.030003   
    152. D(C  21,C  20,C  19,H   5)    179.6092         0.030003   
    153. D(H   2,C  20,C  19,C  18)    179.8499         0.030003   
    154. D(H   2,C  20,C  19,H   5)     -0.3488         0.030003   
    155. D(O  24,C  21,C  20,C  19)   -179.9859         0.025724   
    156. D(O  24,C  21,C  20,H   2)     -0.0266         0.025724   
    157. D(C  22,C  21,C  20,C  19)     -0.3167         0.025724   
    158. D(C  22,C  21,C  20,H   2)    179.6425         0.025724   
    159. D(H   6,C  22,C  21,C  20)   -178.9732         0.027233   
    160. D(C  23,C  22,C  21,O  24)   -179.6963         0.027233   
    161. D(C  23,C  22,C  21,C  20)      0.6693         0.027233   
    162. D(H   6,C  22,C  21,O  24)      0.6613         0.027233   
    163. D(C  18,C  23,C  22,C  21)     -0.5287         0.027930   
    164. D(C  18,C  23,C  22,H   6)    179.1230         0.027930   
    165. D(H   9,C  23,C  22,C  21)   -179.8246         0.027930   
    166. D(H   9,C  23,C  22,H   6)     -0.1729         0.027930   
    167. D(C  22,C  23,C  18,C  19)      0.0211         0.027748   
    168. D(C  22,C  23,C  18,C  16)   -179.5913         0.027748   
    169. D(H   9,C  23,C  18,C  19)    179.3095         0.027748   
    170. D(H   9,C  23,C  18,C  16)     -0.3029         0.027748   
    171. D(C  25,O  24,C  21,C  22)      3.4518         0.027783   
    172. D(C  25,O  24,C  21,C  20)   -176.9026         0.027783   
    173. D(C  26,C  25,O  24,C  21)    -72.9800         0.021742   
    174. D(H   4,C  25,O  24,C  21)    167.8834         0.021742   
    175. D(H   0,C  25,O  24,C  21)     52.7642         0.021742   
    176. D(C  31,C  26,C  25,H   4)    -78.9716         0.012051   
    177. D(C  31,C  26,C  25,H   0)     38.8615         0.012051   
    178. D(C  27,C  26,C  25,O  24)    -15.1133         0.012051   
    179. D(C  27,C  26,C  25,H   4)    101.6513         0.012051   
    180. D(C  27,C  26,C  25,H   0)   -140.5156         0.012051   
    181. D(C  28,C  27,C  26,C  31)     -0.4645         0.026834   
    182. D(C  28,C  27,C  26,C  25)    178.9488         0.026834   
    183. D(H   1,C  27,C  26,C  31)    179.4195         0.026834   
    184. D(H   1,C  27,C  26,C  25)     -1.1673         0.026834   
    185. D(C  29,C  28,C  27,C  26)     -0.2429         0.028657   
    186. D(C  29,C  28,C  27,H   1)    179.8744         0.028657   
    187. D(H  12,C  28,C  27,C  26)    179.7654         0.028657   
    188. D(H  12,C  28,C  27,H   1)     -0.1174         0.028657   
    189. D(C  30,C  29,C  28,H  12)   -179.5114         0.027689   
    190. D(H   8,C  29,C  28,C  27)   -179.8619         0.027689   
    191. D(H   8,C  29,C  28,H  12)      0.1298         0.027689   
    192. D(C  30,C  29,C  28,C  27)      0.4969         0.027689   
    193. D(C  31,C  30,C  29,C  28)     -0.0318         0.029601   
    194. D(C  31,C  30,C  29,H   8)   -179.6746         0.029601   
    195. D(H  10,C  30,C  29,C  28)    179.5273         0.029601   
    196. D(H  10,C  30,C  29,H   8)     -0.1155         0.029601   
    197. D(N  32,C  31,C  30,C  29)    179.1782         0.026227   
    198. D(N  32,C  31,C  30,H  10)     -0.3945         0.026227   
    199. D(C  26,C  31,C  30,C  29)     -0.6973         0.026227   
    200. D(C  26,C  31,C  30,H  10)    179.7301         0.026227   
    201. D(N  32,C  31,C  26,C  27)   -178.9387         0.024888   
    202. D(N  32,C  31,C  26,C  25)      1.6742         0.024888   
    203. D(C  30,C  31,C  26,C  27)      0.9296         0.024888   
    204. D(C  30,C  31,C  26,C  25)   -178.4574         0.024888   
    205. D(O  34,N  32,C  31,C  30)   -161.5229         0.017499   
    206. D(O  34,N  32,C  31,C  26)     18.3507         0.017499   
    207. D(O  33,N  32,C  31,C  30)     18.3154         0.017499   
    208. D(O  33,N  32,C  31,C  26)   -161.8110         0.017499   
    209. D(H  37,N  36,C  35,H  39)   -176.0061         0.018564   
    210. D(H  37,N  36,C  35,H  38)     64.6276         0.018564   
    211. D(C  15,N  36,C  35,H  40)    109.5495         0.018564   
    212. D(C  15,N  36,C  35,H  39)     -9.9581         0.018564   
    213. D(C  15,N  36,C  35,H  38)   -129.3243         0.018564   
    214. D(H  37,N  36,C  15,O  17)    171.7746         0.032102   
    215. D(H  37,N  36,C  15,C  14)    -10.0880         0.032102   
    216. D(C  35,N  36,C  15,O  17)      5.8957         0.032102   
    217. D(C  35,N  36,C  15,C  14)   -175.9669         0.032102   
    218. D(C  43,C  41,N  13,C  14)    179.6149         0.028887   
    219. D(C  43,C  41,N  13,H  11)      0.0581         0.028887   
    220. D(O  42,C  41,N  13,C  14)     -0.3255         0.028887   
    221. D(O  42,C  41,N  13,H  11)   -179.8823         0.028887   
    222. D(H  46,C  43,C  41,N  13)     60.1643         0.012042   
    223. D(H  45,C  43,C  41,O  42)    120.4179         0.012042   
    224. D(H  45,C  43,C  41,N  13)    -59.5223         0.012042   
    225. D(H  44,C  43,C  41,O  42)      0.1997         0.012042   
    226. D(H  44,C  43,C  41,N  13)   -179.7405         0.012042   
    -----------------------------------------------------------------

Number of atoms                         .... 47
Number of degrees of freedom            .... 226


         *************************************************************
         *                GEOMETRY OPTIMIZATION CYCLE   1            *
         *************************************************************
---------------------------------
CARTESIAN COORDINATES (ANGSTROEM)
---------------------------------
  H    -3.487890   -0.387960    2.490360
  H    -1.492960   -2.736290    0.617400
  H    -2.848850   -0.405360   -1.845800
  H     1.112010    3.201570   -0.583640
  H    -4.269680   -1.890870    2.002110
  H    -1.208080    1.202290   -2.754620
  H    -1.354060    0.320280    2.092260
  H     1.399270    2.125150   -1.956950
  H     0.758380   -4.215630    3.930870
  H     0.240060    1.913370    1.195570
  H    -0.793930   -3.047840    5.475120
  H    -0.205800    4.523530   -4.069940
  H     0.379870   -4.054700    1.488190
  N     0.378280    3.802930   -3.629820
  C    -0.012530    3.637740   -2.335630
  C    -1.126450    4.507340   -2.001180
  C     0.625680    2.665620   -1.406160
  O    -1.575420    5.284380   -2.852260
  C    -0.372460    1.682800   -0.843190
  C    -1.249940    1.013830   -1.692450
  C    -2.164950    0.114180   -1.193680
  C    -2.227940   -0.148190    0.176400
  C    -1.349210    0.506750    1.029880
  C    -0.437860    1.415520    0.515920
  O    -3.170650   -1.056030    0.560610
  C    -3.336450   -1.321190    1.933580
  C    -2.214810   -2.136170    2.529970
  C    -1.336500   -2.803900    1.682910
  C    -0.279380   -3.546710    2.175080
  C    -0.066200   -3.639190    3.542430
  C    -0.924620   -2.991820    4.405060
  C    -1.995940   -2.250990    3.908650
  N    -2.851770   -1.623540    4.877330
  O    -2.418040   -1.485230    6.003760
  O    -3.961270   -1.267430    4.524150
  C    -2.760920    5.206220   -0.323180
  N    -1.606540    4.449240   -0.731980
  H    -1.287890    3.713590   -0.122320
  H    -2.543910    5.766010    0.588140
  H    -2.999220    5.899560   -1.128180
  H    -3.618390    4.552410   -0.145000
  C     1.354290    3.191540   -4.374650
  O     2.092720    2.327900   -3.943940
  C     1.401080    3.716340   -5.789100
  H     2.183360    3.200310   -6.337870
  H     0.445630    3.552160   -6.283350
  H     1.608870    4.784460   -5.784900

----------------------------
CARTESIAN COORDINATES (A.U.)
----------------------------
  NO LB    ZA    FRAG    MASS        X           Y           Z
   0 H   1.0000    0     1.008   -6.591157   -0.733138    4.706098
   1 H   1.0000    0     1.008   -2.821286   -5.170839    1.166717
   2 H   1.0000    0     1.008   -5.383546   -0.766019   -3.488056
   3 H   1.0000    0     1.008    2.101394    6.050090   -1.102920
   4 H   1.0000    0     1.008   -8.068526   -3.573226    3.783440
   5 H   1.0000    0     1.008   -2.282940    2.271999   -5.205477
   6 H   1.0000    0     1.008   -2.558803    0.605241    3.953798
   7 H   1.0000    0     1.008    2.644237    4.015951   -3.698100
   8 H   1.0000    0     1.008    1.433131   -7.966386    7.428268
   9 H   1.0000    0     1.008    0.453648    3.615745    2.259300
  10 H   1.0000    0     1.008   -1.500310   -5.759583   10.346477
  11 H   1.0000    0     1.008   -0.388906    8.548233   -7.691072
  12 H   1.0000    0     1.008    0.717850   -7.662273    2.812272
  13 N   7.0000    0    14.007    0.714846    7.186496   -6.859366
  14 C   6.0000    0    12.011   -0.023678    6.874332   -4.413701
  15 C   6.0000    0    12.011   -2.128682    8.517638   -3.781682
  16 C   6.0000    0    12.011    1.182364    5.037292   -2.657257
  17 O   8.0000    0    15.999   -2.977112    9.986031   -5.389990
  18 C   6.0000    0    12.011   -0.703847    3.180031   -1.593398
  19 C   6.0000    0    12.011   -2.362044    1.915861   -3.198267
  20 C   6.0000    0    12.011   -4.091163    0.215769   -2.255728
  21 C   6.0000    0    12.011   -4.210196   -0.280039    0.333348
  22 C   6.0000    0    12.011   -2.549637    0.957619    1.946191
  23 C   6.0000    0    12.011   -0.827435    2.674945    0.974948
  24 O   8.0000    0    15.999   -5.991660   -1.995607    1.059399
  25 C   6.0000    0    12.011   -6.304977   -2.496687    3.653937
  26 C   6.0000    0    12.011   -4.185384   -4.036776    4.780950
  27 C   6.0000    0    12.011   -2.525619   -5.298603    3.180239
  28 C   6.0000    0    12.011   -0.527952   -6.702311    4.110306
  29 C   6.0000    0    12.011   -0.125100   -6.877072    6.694223
  30 C   6.0000    0    12.011   -1.747279   -5.653720    8.324357
  31 C   6.0000    0    12.011   -3.771780   -4.253755    7.386278
  32 N   7.0000    0    14.007   -5.389064   -3.068046    9.216818
  33 O   8.0000    0    15.999   -4.569433   -2.806678   11.345462
  34 O   8.0000    0    15.999   -7.485715   -2.395096    8.549404
  35 C   6.0000    0    12.011   -5.217383    9.838330   -0.610722
  36 N   7.0000    0    14.007   -3.035921    8.407845   -1.383242
  37 H   1.0000    0     1.008   -2.433759    7.017668   -0.231151
  38 H   1.0000    0     1.008   -4.807293   10.896180    1.111424
  39 H   1.0000    0     1.008   -5.667704   11.148553   -2.131951
  40 H   1.0000    0     1.008   -6.837766    8.602808   -0.274010
  41 C   6.0000    0    12.011    2.559237    6.031137   -8.266890
  42 O   8.0000    0    15.999    3.954668    4.399093   -7.452966
  43 C   6.0000    0    12.011    2.647657    7.022865  -10.939814
  44 H   1.0000    0     1.008    4.125952    6.047709  -11.976839
  45 H   1.0000    0     1.008    0.842119    6.712610  -11.873811
  46 H   1.0000    0     1.008    3.040324    9.041319  -10.931877

      -----------------------------------------------------------      
     |                   =====================                   |     
     |                           x T B                           |     
     |                   =====================                   |     
     |                         S. Grimme                         |     
     |          Mulliken Center for Theoretical Chemistry        |     
     |                    University of Bonn                     |     
      -----------------------------------------------------------      

   * xtb version 6.7.1 (edcfbbe) compiled by 'albert@albert-system' on 2024-07-22

   xtb is free software: you can redistribute it and/or modify it under
   the terms of the GNU Lesser General Public License as published by
   the Free Software Foundation, either version 3 of the License, or
   (at your option) any later version.
   
   xtb is distributed in the hope that it will be useful,
   but WITHOUT ANY WARRANTY; without even the implied warranty of
   MERCHANTABILITY or FITNESS FOR A PARTICULAR PURPOSE.  See the
   GNU Lesser General Public License for more details.
   
   Cite this work as:
   * C. Bannwarth, E. Caldeweyher, S. Ehlert, A. Hansen, P. Pracht,
     J. Seibert, S. Spicher, S. Grimme, WIREs Comput. Mol. Sci., 2020, 11,
     e01493. DOI: 10.1002/wcms.1493
   
   for GFN2-xTB:
   * C. Bannwarth, S. Ehlert and S. Grimme., J. Chem. Theory Comput., 2019,
     15, 1652-1671. DOI: 10.1021/acs.jctc.8b01176
   for GFN1-xTB:
   * S. Grimme, C. Bannwarth, P. Shushkov, J. Chem. Theory Comput., 2017,
     13, 1989-2009. DOI: 10.1021/acs.jctc.7b00118
   for GFN0-xTB:
   * P. Pracht, E. Caldeweyher, S. Ehlert, S. Grimme, ChemRxiv, 2019, preprint.
     DOI: 10.26434/chemrxiv.8326202.v1
   for GFN-FF:
   * S. Spicher and S. Grimme, Angew. Chem. Int. Ed., 2020, 59, 15665-15673.
     DOI: 10.1002/anie.202004239
   
   for ALPB and GBSA implicit solvation:
   * S. Ehlert, M. Stahn, S. Spicher, S. Grimme, J. Chem. Theory Comput.,
     2021, 17, 4250-4261. DOI: 10.1021/acs.jctc.1c00471
   
   for ddCOSMO and CPCM-X implicit solvation:
   * M. Stahn, S. Ehlert, S. Grimme, J. Phys. Chem. A,
     2023, XX, XXXX-XXXX. DOI: 10.1021/acs.jpca.3c04382
   
   for DFT-D4:
   * E. Caldeweyher, C. Bannwarth and S. Grimme, J. Chem. Phys., 2017,
     147, 034112. DOI: 10.1063/1.4993215
   * E. Caldeweyher, S. Ehlert, A. Hansen, H. Neugebauer, S. Spicher,
     C. Bannwarth and S. Grimme, J. Chem. Phys., 2019, 150, 154122.
     DOI: 10.1063/1.5090222
   * E. Caldeweyher, J.-M. Mewes, S. Ehlert and S. Grimme, Phys. Chem. Chem. Phys.
     2020, 22, 8499-8512. DOI: 10.1039/D0CP00502A
   
   for sTDA-xTB:
   * S. Grimme and C. Bannwarth, J. Chem. Phys., 2016, 145, 054103.
     DOI: 10.1063/1.4959605
   
   in the mass-spec context:
   * V. Asgeirsson, C. Bauer and S. Grimme, Chem. Sci., 2017, 8, 4879.
     DOI: 10.1039/c7sc00601b
   * J. Koopman and S. Grimme, ACS Omega 2019, 4, 12, 15120-15133.
     DOI: 10.1021/acsomega.9b02011
   
   for metadynamics refer to:
   * S. Grimme, J. Chem. Theory Comput., 2019, 155, 2847-2862
     DOI: 10.1021/acs.jctc.9b00143
   
   for SPH calculations refer to:
   * S. Spicher and S. Grimme, J. Chem. Theory Comput., 2021, 17, 1701-1714
     DOI: 10.1021/acs.jctc.0c01306
   
   for ONIOM refer to:
   * C. Plett, A. Katbashev, S. Ehlert, S. Grimme, M. Bursch,
     Phys. Chem. Chem. Phys., 2023, 25, 17860-17868. DOI: 10.1039/D3CP02178E
   
   for DIPRO refer to:
   * J. Kohn, N. Gildemeister, S. Grimme, D. Fazzi, A. Hansen,
     J. Chem. Phys., 2023, just accepted.
   
   for PTB refer to:
   * S. Grimme, M. Mueller, A. Hansen, J. Chem. Phys., 2023, 158, 124111.
     DOI: 10.1063/5.0137838
   
   with help from (in alphabetical order)
   P. Atkinson, C. Bannwarth, F. Bohle, G. Brandenburg, E. Caldeweyher
   M. Checinski, S. Dohm, S. Ehlert, S. Ehrlich, I. Gerasimov, C. Hölzer
   A. Katbashev, J. Kohn, J. Koopman, C. Lavigne, S. Lehtola, F. März, M. Müller,
   F. Musil, H. Neugebauer, J. Pisarek, C. Plett, P. Pracht, F. Pultar,
   J. Seibert, P. Shushkov, S. Spicher, M. Stahn, M. Steiner, T. Strunk,
   J. Stückrath, T. Rose, and J. Unsleber
   
 * started run on 2025/07/16 at 15:48:04.130     
   ID    Z sym.   atoms
    1    1 H      1-13, 38-41, 45-47
    2    7 N      14, 33, 37
    3    6 C      15-17, 19-24, 26-32, 36, 42, 44
    4    8 O      18, 25, 34, 35, 43

           -------------------------------------------------
          |                Calculation Setup                |
           -------------------------------------------------

          program call               : /home/esp/bin/orca_6_1_0/otool_xtb /home/esp/scriptDevelopment/drFrankenstein/11_PCY_CHARMM/04_torsion_scanning/torsion_NH1-CT1-CG321-CG2R61/scans_PCY_conformer_4/PCY_conformer_4_opt/orca_opt_XTB.xyz --grad -c 0 -u 0 -P 1 --namespace /home/esp/scriptDevelopment/drFrankenstein/11_PCY_CHARMM/04_torsion_scanning/torsion_NH1-CT1-CG321-CG2R61/scans_PCY_conformer_4/PCY_conformer_4_opt/orca_opt --input /home/esp/scriptDevelopment/drFrankenstein/11_PCY_CHARMM/04_torsion_scanning/torsion_NH1-CT1-CG321-CG2R61/scans_PCY_conformer_4/PCY_conformer_4_opt/orca_opt_XTB.input.tmp --alpb WATER --acc 0.200000
          calculation namespace      : /home/esp/scriptDevelopment/drFrankenstein/11_PCY_CHARMM/04_torsion_scanning/torsion_NH1-CT1-CG321-CG2R61/scans_PCY_conformer_4/PCY_conformer_4_opt/orca_opt
          coordinate file            : /home/esp/scriptDevelopment/drFrankenstein/11_PCY_CHARMM/04_torsion_scanning/torsion_NH1-CT1-CG321-CG2R61/scans_PCY_conformer_4/PCY_conformer_4_opt/orca_opt_XTB.xyz
          omp threads                :                     1


           -------------------------------------------------
          |                 G F N 2 - x T B                 |
           -------------------------------------------------

        Reference                      10.1021/acs.jctc.8b01176
      * Hamiltonian:
        H0-scaling (s, p, d)           1.850000    2.230000    2.230000
        zeta-weighting                 0.500000
      * Dispersion:
        s8                             2.700000
        a1                             0.520000
        a2                             5.000000
        s9                             5.000000
      * Repulsion:
        kExp                           1.500000    1.000000
        rExp                           1.000000
      * Coulomb:
        alpha                          2.000000
        third order                    shell-resolved
        anisotropic                    true
        a3                             3.000000
        a5                             4.000000
        cn-shift                       1.200000
        cn-exp                         4.000000
        max-rad                        5.000000

      * Solvation model:               ALPB
        Solvent                        WATER
        Parameter file                 internal GFN2-xTB/ALPB
        Dielectric constant                8.0200E+01
        Reference state                gsolv [1 M gas/solution]
        Free energy shift                  1.0808E-03 Eh       6.7819E-01 kcal/mol
        Temperature                        2.9815E+02 K
        Density                            1.0000E+00 kg/L
        Solvent mass                       1.8000E+01 g/mol
        Interaction kernel             P16
        Born radius scaling (c1)           1.4744E+00
        Born radii integrator          GBOBC
        Born offset                        0.0000E+00 a0       0.0000E+00 AA
        H-bond correction              true
        Ion screening                  false
        Surface tension                    1.0000E-05 Eh       1.5569E+01 dyn/cm
        Grid points                               230 per atom

          ...................................................
          :                      SETUP                      :
          :.................................................:
          :  # basis functions                 128          :
          :  # atomic orbitals                 128          :
          :  # shells                           74          :
          :  # electrons                       141          :
          :  max. iterations                   250          :
          :  Hamiltonian                  GFN2-xTB          :
          :  restarted?                      false          :
          :  GBSA solvation                   true          :
          :  PC potential                    false          :
          :  electronic temp.          300.0000000     K    :
          :  accuracy                    0.2000000          :
          :  -> integral cutoff          0.3198970E+02      :
          :  -> integral neglect         0.2000000E-08      :
          :  -> SCF convergence          0.2000000E-06 Eh   :
          :  -> wf. convergence          0.2000000E-04 e    :
          :  Broyden damping             0.4000000          :
          :  net charge                          0          :
          :  unpaired electrons                  0          :
          ...................................................

 iter      E             dE          RMSdq      gap      omega  full diag
   1    -80.7330792 -0.807331E+02  0.480E+00    0.85       0.0  T
   2    -80.9369250 -0.203846E+00  0.244E+00    0.21       1.0  T
   3    -80.9417302 -0.480518E-02  0.115E+00    0.24       1.0  T
   4    -80.8223886  0.119342E+00  0.155E+00    0.22       1.0  T
   5    -80.9448051 -0.122417E+00  0.324E-01    0.46       1.0  T
   6    -80.9470222 -0.221705E-02  0.184E-01    0.33       1.0  T
   7    -80.9471062 -0.839688E-04  0.159E-01    0.30       1.0  T
   8    -80.9477469 -0.640773E-03  0.852E-02    0.19       1.0  T
   9    -80.9480627 -0.315721E-03  0.164E-02    0.14       1.0  T
  10    -80.9480674 -0.470087E-05  0.461E-03    0.13       3.2  T
  11    -80.9480678 -0.481891E-06  0.205E-03    0.13       7.1  T
  12    -80.9480677  0.110174E-06  0.207E-03    0.14       7.1  T
  13    -80.9480679 -0.182372E-06  0.419E-04    0.13      34.8  T
  14    -80.9480679  0.984386E-10  0.228E-04    0.13      64.0  T
  15    -80.9480679 -0.117880E-08  0.126E-04    0.13     116.1  T
  16    -80.9480679 -0.564413E-09  0.341E-05    0.13     427.6  T

   *** convergence criteria satisfied after 16 iterations ***

         #    Occupation            Energy/Eh            Energy/eV
      -------------------------------------------------------------
         1        2.0000           -0.7794079             -21.2088
       ...           ...                  ...                  ...
        65        2.0000           -0.4239464             -11.5362
        66        2.0000           -0.4172996             -11.3553
        67        2.0000           -0.4136018             -11.2547
        68        2.0000           -0.4055482             -11.0355
        69        2.0000           -0.4018732             -10.9355
        70        2.0000           -0.3832684             -10.4293
        71        0.9310           -0.3292151              -8.9584 (HOMO)
        72        0.0690           -0.3242714              -8.8239 (LUMO)
        73                         -0.2485552              -6.7635
        74                         -0.2365995              -6.4382
        75                         -0.2313964              -6.2966
        76                         -0.2237272              -6.0879
       ...                                ...                  ...
       128                          0.6596367              17.9496
      -------------------------------------------------------------
                  HL-Gap            0.0049437 Eh            0.1345 eV
             Fermi-level           -0.3414925 Eh           -9.2925 eV

 SCC (total)                   0 d,  0 h,  0 min,  0.088 sec
 SCC setup                      ...        0 min,  0.001 sec (  1.472%)
 Dispersion                     ...        0 min,  0.000 sec (  0.490%)
 classical contributions        ...        0 min,  0.000 sec (  0.097%)
 integral evaluation            ...        0 min,  0.010 sec ( 11.734%)
 iterations                     ...        0 min,  0.053 sec ( 60.126%)
 molecular gradient             ...        0 min,  0.022 sec ( 25.297%)
 printout                       ...        0 min,  0.001 sec (  0.755%)

         :::::::::::::::::::::::::::::::::::::::::::::::::::::
         ::                     SUMMARY                     ::
         :::::::::::::::::::::::::::::::::::::::::::::::::::::
         :: total energy             -79.900107159485 Eh    ::
         :: total w/o Gsasa/hb       -79.898023308636 Eh    ::
         :: gradient norm              0.044237946787 Eh/a0 ::
         :: HOMO-LUMO gap              0.134524171997 eV    ::
         ::.................................................::
         :: SCC energy               -80.947590590218 Eh    ::
         :: -> isotropic ES            0.180830904061 Eh    ::
         :: -> anisotropic ES          0.002591779690 Eh    ::
         :: -> anisotropic XC          0.021283368352 Eh    ::
         :: -> dispersion             -0.050279975409 Eh    ::
         :: -> Gsolv                  -0.031733006940 Eh    ::
         ::    -> Gelec               -0.029649156091 Eh    ::
         ::    -> Gsasa                0.004019203577 Eh    ::
         ::    -> Ghb                 -0.007183814124 Eh    ::
         ::    -> Gshift               0.001080759698 Eh    ::
         :: repulsion energy           1.047483430733 Eh    ::
         :: add. restraining           0.000000000000 Eh    ::
         :: total charge              -0.000000000000 e     ::
         :::::::::::::::::::::::::::::::::::::::::::::::::::::


Property printout bound to 'properties.out'

           -------------------------------------------------
          | TOTAL ENERGY              -79.900107159485 Eh   |
          | GRADIENT NORM               0.044237946787 Eh/α |
          | HOMO-LUMO GAP               0.134524171997 eV   |
           -------------------------------------------------

------------------------------------------------------------------------
 * finished run on 2025/07/16 at 15:48:04.248     
------------------------------------------------------------------------
 total:
 * wall-time:     0 d,  0 h,  0 min,  0.117 sec
 *  cpu-time:     0 d,  0 h,  0 min,  0.077 sec
 * ratio c/w:     0.656 speedup
 SCF:
 * wall-time:     0 d,  0 h,  0 min,  0.094 sec
 *  cpu-time:     0 d,  0 h,  0 min,  0.066 sec
 * ratio c/w:     0.705 speedup


-------------------------   --------------------
FINAL SINGLE POINT ENERGY       -79.900107159490
-------------------------   --------------------


-------------
DIPOLE MOMENT
-------------
                                X             Y             Z
Total Dipole Moment    :      1.29000      -0.41000      -1.20400
                        -----------------------------------------
Magnitude (a.u.)       :      1.81158
Magnitude (Debye)      :      4.60467


------------------
CARTESIAN GRADIENT
------------------

   1   H   :    0.000058870    0.000041445    0.000199837
   2   H   :    0.000154442   -0.000076863   -0.000299158
   3   H   :   -0.000065274   -0.000008098   -0.000119296
   4   H   :    0.000537020    0.000333494    0.000784652
   5   H   :   -0.000206281   -0.000129202    0.000184570
   6   H   :    0.000075142    0.000188143   -0.000067812
   7   H   :    0.000110745    0.000092926    0.000425149
   8   H   :    0.000220380   -0.000150458   -0.000508663
   9   H   :    0.000606498   -0.000381715    0.000062910
  10   H   :    0.000497145    0.000473311    0.000421640
  11   H   :    0.000104309    0.000101958    0.000250346
  12   H   :   -0.000979842    0.000358338    0.001429030
  13   H   :    0.000431433   -0.000300673   -0.000375777
  14   N   :   -0.000595319    0.000841891   -0.001994073
  15   C   :   -0.001618214    0.000969324    0.001352252
  16   C   :   -0.003490852    0.009703458   -0.015152141
  17   C   :   -0.000071270   -0.001014717   -0.000338925
  18   O   :    0.005893948   -0.009386584    0.009000432
  19   C   :    0.000710970    0.000229563   -0.000043589
  20   C   :   -0.000381559   -0.000342214    0.000248206
  21   C   :    0.000547819    0.000466245    0.000179430
  22   C   :   -0.001703656   -0.001660388    0.000617791
  23   C   :   -0.000244604   -0.000016191   -0.000320988
  24   C   :   -0.000681497   -0.000537387   -0.000637684
  25   O   :    0.001361412    0.000908624    0.000856665
  26   C   :   -0.000062140    0.000785675   -0.001679820
  27   C   :    0.000682967   -0.000029946    0.002063231
  28   C   :    0.000596836   -0.000335120    0.000228669
  29   C   :   -0.000721890    0.000564537    0.000912853
  30   C   :   -0.000551688    0.000255602   -0.001048568
  31   C   :   -0.001929319    0.000878884   -0.000974678
  32   C   :    0.004022745   -0.003076898   -0.004510274
  33   N   :   -0.012213146    0.009860401    0.017181260
  34   O   :   -0.001098646   -0.002913222   -0.013176758
  35   O   :    0.010338083   -0.004552938   -0.000778090
  36   C   :    0.001356378   -0.000916119   -0.001403980
  37   N   :   -0.001620061   -0.000616670    0.005896321
  38   H   :   -0.000523425    0.000346402   -0.000431807
  39   H   :   -0.000108560    0.000638870    0.000855249
  40   H   :    0.000540589   -0.000282853   -0.000339445
  41   H   :   -0.000946343   -0.000236468    0.000318673
  42   C   :    0.008956560   -0.011405872    0.007718999
  43   O   :   -0.007518390    0.008733941   -0.004193446
  44   C   :   -0.000165954    0.000785799   -0.001405494
  45   H   :    0.000013795    0.000084750   -0.000274522
  46   H   :   -0.000580741   -0.000053078   -0.000715705
  47   H   :    0.000260582    0.000780094   -0.000397472

Difference to translation invariance:
           :    0.0000000000   -0.0000000000    0.0000000000

Difference to rotation invariance:
           :    0.0000688317    0.0000702418    0.0000987588

Norm of the Cartesian gradient     ...    0.0442379468
RMS gradient                       ...    0.0037255072
MAX gradient                       ...    0.0171812596
------------------------------------------------------------------------------
                         ORCA GEOMETRY RELAXATION STEP
------------------------------------------------------------------------------

Reading the OPT-File                    .... done
Getting information on internals        .... done
Copying old internal coords+grads       .... done
Making the new internal coordinates     .... (2022 redundants) done
Validating the new internal coordinates .... (2022 redundants) done
Calculating the B-matrix                .... done
Calculating the G,G- and P matrices     .... done
Transforming gradient to internals      .... done
Projecting the internal gradient        .... done
Number of atoms                         ....  47
Number of internal coordinates          .... 226
Current Energy                          ....   -79.900107159 Eh
Current gradient norm                   ....     0.044237947 Eh/bohr
Maximum allowed component of the step   ....  0.300
Current trust radius                    ....  0.300
Evaluating the initial hessian          ....  (Almloef) done
Projecting the Hessian                  .... done
Forming the augmented Hessian           .... done
Diagonalizing the augmented Hessian     .... done
Last element of RFO vector              ....  0.997346557
Lowest eigenvalues of augmented Hessian:
 -0.001095584  0.012017976  0.012042328  0.012052804  0.013961951
Length of the computed step             ....  0.072993727
The final length of the internal step   ....  0.072993727
Converting the step to Cartesian space:
 Initial RMS(Int)=    0.0048554705
Transforming coordinates:
 Iter   0:  RMS(Cart)=    0.0404761925 RMS(Int)=    0.4177398464
done
Storing new coordinates                 .... done

                                .--------------------.
          ----------------------|Geometry convergence|-------------------------
          Item                value                   Tolerance       Converged
          ---------------------------------------------------------------------
          RMS gradient        0.0018862494            0.0001000000      NO
          MAX gradient        0.0141498073            0.0003000000      NO
          RMS step            0.0048554705            0.0020000000      NO
          MAX step            0.0300147613            0.0040000000      NO
          -------------------------------------------------------------------------
          ........................................................
          Max(Bonds)      0.0159      Max(Angles)    0.75
          Max(Dihed)        1.18      Max(Improp)    0.00
          ---------------------------------------------------------------------

The optimization has not yet converged - more geometry cycles are needed


    ---------------------------------------------------------------------------
                         Redundant Internal Coordinates
                            (Angstroem and degrees)

        Definition                    Value    dE/dq     Step     New-Value
    ----------------------------------------------------------------------------
     1. B(N  13,H  11)                1.0267 -0.000268 -0.0000    1.0267   
     2. B(C  14,N  13)                1.3620  0.000536  0.0000    1.3620   
     3. B(C  15,C  14)                1.4522 -0.000539  0.0013    1.4535   
     4. B(C  16,H   3)                1.0956  0.000991 -0.0015    1.0941   
     5. B(C  16,H   7)                1.0927  0.000487 -0.0007    1.0919   
     6. B(C  16,C  14)                1.4887  0.000541 -0.0007    1.4880   
     7. B(O  17,C  15)                1.2368 -0.014150  0.0076    1.2445   
     8. B(O  17,H  11)                1.9843 -0.001163  0.0159    2.0002   
     9. B(C  18,C  16)                1.5097 -0.000679  0.0009    1.5106   
    10. B(C  19,C  18)                1.3924 -0.000144  0.0001    1.3925   
    11. B(C  19,H   5)                1.0796  0.000102 -0.0001    1.0794   
    12. B(C  20,C  19)                1.3767 -0.000412  0.0003    1.3771   
    13. B(C  20,H   2)                1.0784  0.000117 -0.0002    1.0782   
    14. B(C  21,C  20)                1.3964 -0.000070  0.0001    1.3965   
    15. B(C  22,C  21)                1.3891  0.000026 -0.0000    1.3890   
    16. B(C  22,H   6)                1.0786  0.000402 -0.0006    1.0781   
    17. B(C  23,C  22)                1.3858 -0.000087  0.0001    1.3859   
    18. B(C  23,C  18)                1.3867 -0.000288  0.0002    1.3869   
    19. B(C  23,H   9)                1.0814  0.000795 -0.0011    1.0802   
    20. B(O  24,C  21)                1.3640 -0.002405  0.0021    1.3661   
    21. B(C  25,O  24)                1.4081 -0.001869  0.0019    1.4100   
    22. B(C  25,H   4)                1.0955  0.000255 -0.0004    1.0951   
    23. B(C  25,H   0)                1.0972  0.000129 -0.0002    1.0970   
    24. B(C  26,C  25)                1.5093  0.000130 -0.0002    1.5091   
    25. B(C  27,C  26)                1.3910  0.000391 -0.0003    1.3906   
    26. B(C  27,H   1)                1.0791  0.000268 -0.0004    1.0787   
    27. B(C  28,C  27)                1.3826 -0.000770  0.0006    1.3832   
    28. B(C  28,H  12)                1.0791  0.000644 -0.0009    1.0782   
    29. B(C  29,C  28)                1.3870 -0.000937  0.0008    1.3877   
    30. B(C  29,H   8)                1.0785  0.000690 -0.0010    1.0775   
    31. B(C  30,C  29)                1.3784  0.000376 -0.0003    1.3781   
    32. B(C  30,H  10)                1.0795  0.000256 -0.0004    1.0791   
    33. B(C  31,C  30)                1.3939 -0.001827  0.0016    1.3955   
    34. B(C  31,C  26)                1.4007 -0.002136  0.0019    1.4026   
    35. B(N  32,C  31)                1.4368  0.004993 -0.0056    1.4312   
    36. B(O  33,N  32)                1.2149 -0.012941  0.0072    1.2221   
    37. B(O  34,N  32)                1.2176 -0.010526  0.0059    1.2235   
    38. B(N  36,C  35)                1.4397 -0.001257  0.0014    1.4411   
    39. B(N  36,C  15)                1.3582  0.005078 -0.0043    1.3539   
    40. B(H  37,N  36)                1.0072 -0.000680  0.0008    1.0080   
    41. B(H  38,C  35)                1.0913  0.001020 -0.0015    1.0898   
    42. B(H  39,C  35)                1.0888 -0.000047  0.0001    1.0889   
    43. B(H  40,C  35)                1.0929  0.000936 -0.0014    1.0915   
    44. B(C  41,N  13)                1.3716  0.000771 -0.0007    1.3709   
    45. B(O  42,C  41)                1.2152 -0.012262  0.0061    1.2213   
    46. B(C  43,C  41)                1.5094  0.003158 -0.0041    1.5053   
    47. B(H  44,C  43)                1.0860  0.000109 -0.0002    1.0858   
    48. B(H  45,C  43)                1.0882  0.000843 -0.0012    1.0869   
    49. B(H  46,C  43)                1.0882  0.000814 -0.0012    1.0870   
    50. A(H  11,N  13,C  41)          119.01  0.001195   -0.26    118.74   
    51. A(C  14,N  13,C  41)          131.77 -0.001047    0.08    131.86   
    52. A(H  11,N  13,C  14)          109.22 -0.000148    0.18    109.40   
    53. A(N  13,C  14,C  15)          111.49  0.000087    0.24    111.73   
    54. A(N  13,C  14,C  16)          123.33 -0.001565    0.10    123.43   
    55. A(C  15,C  14,C  16)          125.17  0.001475   -0.34    124.84   
    56. A(O  17,C  15,N  36)          122.79 -0.000088   -0.06    122.73   
    57. A(C  14,C  15,O  17)          119.75 -0.000108    0.16    119.91   
    58. A(C  14,C  15,N  36)          117.43  0.000203   -0.11    117.32   
    59. A(H   3,C  16,H   7)          107.83 -0.000033   -0.04    107.79   
    60. A(H   3,C  16,C  14)          109.85  0.000452   -0.08    109.77   
    61. A(C  14,C  16,C  18)          111.99 -0.000634    0.12    112.11   
    62. A(H   3,C  16,C  18)          109.39 -0.000044    0.01    109.40   
    63. A(H   7,C  16,C  14)          108.17 -0.000161    0.06    108.22   
    64. A(H   7,C  16,C  18)          109.51  0.000442   -0.07    109.45   
    65. A(C  16,C  18,C  23)          121.48  0.000224   -0.03    121.44   
    66. A(C  19,C  18,C  23)          118.39 -0.000030    0.01    118.40   
    67. A(C  16,C  18,C  19)          120.13 -0.000193    0.03    120.16   
    68. A(C  18,C  19,C  20)          120.79  0.000058   -0.01    120.78   
    69. A(H   5,C  19,C  18)          119.46 -0.000201    0.03    119.49   
    70. A(H   5,C  19,C  20)          119.76  0.000143   -0.03    119.73   
    71. A(H   2,C  20,C  21)          118.31  0.000025   -0.01    118.30   
    72. A(C  19,C  20,C  21)          120.55  0.000082   -0.01    120.53   
    73. A(H   2,C  20,C  19)          121.15 -0.000107    0.02    121.16   
    74. A(C  22,C  21,O  24)          125.31 -0.000388    0.05    125.36   
    75. A(C  20,C  21,O  24)          115.63  0.000506   -0.07    115.57   
    76. A(C  20,C  21,C  22)          119.06 -0.000118    0.01    119.07   
    77. A(C  21,C  22,C  23)          119.82 -0.000046    0.00    119.83   
    78. A(H   6,C  22,C  23)          118.79 -0.000175    0.03    118.82   
    79. A(H   6,C  22,C  21)          121.39  0.000221   -0.03    121.35   
    80. A(C  18,C  23,C  22)          121.39  0.000055   -0.01    121.38   
    81. A(H   9,C  23,C  22)          118.76  0.000088   -0.02    118.74   
    82. A(H   9,C  23,C  18)          119.85 -0.000142    0.02    119.87   
    83. A(C  21,O  24,C  25)          118.77 -0.001503    0.21    118.98   
    84. A(H   0,C  25,H   4)          107.04 -0.000055   -0.02    107.02   
    85. A(O  24,C  25,C  26)          113.54 -0.000825    0.14    113.68   
    86. A(H   4,C  25,C  26)          109.12  0.000154   -0.04    109.08   
    87. A(H   0,C  25,C  26)          111.18  0.000022    0.03    111.21   
    88. A(H   4,C  25,O  24)          105.02  0.000485   -0.11    104.92   
    89. A(H   0,C  25,O  24)          110.54  0.000285   -0.02    110.52   
    90. A(C  27,C  26,C  31)          117.48  0.000286   -0.04    117.44   
    91. A(C  25,C  26,C  31)          123.32 -0.000529    0.07    123.39   
    92. A(C  25,C  26,C  27)          119.20  0.000243   -0.04    119.16   
    93. A(C  26,C  27,C  28)          121.60 -0.000246    0.03    121.63   
    94. A(H   1,C  27,C  28)          119.74 -0.000095    0.02    119.76   
    95. A(H   1,C  27,C  26)          118.67  0.000341   -0.05    118.62   
    96. A(C  27,C  28,C  29)          120.28 -0.000233    0.02    120.31   
    97. A(H  12,C  28,C  29)          120.15  0.000070   -0.00    120.14   
    98. A(H  12,C  28,C  27)          119.57  0.000163   -0.02    119.55   
    99. A(C  28,C  29,C  30)          119.34 -0.000083    0.01    119.34   
   100. A(H   8,C  29,C  30)          120.12  0.000243   -0.04    120.08   
   101. A(H   8,C  29,C  28)          120.55 -0.000160    0.03    120.58   
   102. A(C  29,C  30,C  31)          120.36  0.000120   -0.01    120.34   
   103. A(H  10,C  30,C  31)          118.27 -0.000068    0.01    118.28   
   104. A(H  10,C  30,C  29)          121.37 -0.000052    0.00    121.38   
   105. A(C  30,C  31,N  32)          116.73  0.000437   -0.07    116.66   
   106. A(C  26,C  31,N  32)          122.33 -0.000593    0.08    122.40   
   107. A(C  26,C  31,C  30)          120.94  0.000156   -0.01    120.93   
   108. A(O  33,N  32,O  34)          124.12  0.006238   -0.75    123.37   
   109. A(C  31,N  32,O  34)          118.35 -0.003361    0.41    118.76   
   110. A(C  31,N  32,O  33)          117.52 -0.002877    0.34    117.87   
   111. A(N  36,C  35,H  38)          110.33  0.000574   -0.10    110.22   
   112. A(H  39,C  35,H  40)          109.25  0.000141   -0.02    109.24   
   113. A(H  38,C  35,H  40)          109.07 -0.000366    0.03    109.10   
   114. A(N  36,C  35,H  40)          111.15  0.000731   -0.14    111.01   
   115. A(H  38,C  35,H  39)          109.53  0.000183   -0.00    109.52   
   116. A(N  36,C  35,H  39)          107.48 -0.001271    0.24    107.72   
   117. A(C  35,N  36,H  37)          117.76  0.000715   -0.08    117.69   
   118. A(C  15,N  36,H  37)          119.02  0.000997   -0.11    118.90   
   119. A(C  15,N  36,C  35)          121.75 -0.001776    0.28    122.04   
   120. A(O  42,C  41,C  43)          124.08  0.000740   -0.10    123.98   
   121. A(N  13,C  41,C  43)          112.08 -0.001095    0.15    112.24   
   122. A(N  13,C  41,O  42)          123.83  0.000355   -0.05    123.78   
   123. A(H  45,C  43,H  46)          108.51 -0.000286    0.03    108.55   
   124. A(H  44,C  43,H  46)          109.32 -0.000409    0.08    109.40   
   125. A(C  41,C  43,H  46)          110.10  0.000464   -0.09    110.01   
   126. A(H  44,C  43,H  45)          109.35 -0.000361    0.08    109.42   
   127. A(C  41,C  43,H  45)          110.24  0.000424   -0.08    110.16   
   128. A(C  41,C  43,H  44)          109.31  0.000153   -0.02    109.29   
   129. D(C  16,C  14,N  13,C  41)      0.35 -0.000116    0.28      0.63   
   130. D(C  15,C  14,N  13,C  41)   -178.80  0.000034   -0.13   -178.94   
   131. D(C  16,C  14,N  13,H  11)    179.94 -0.000071    0.21    180.14   
   132. D(C  15,C  14,N  13,H  11)      0.79  0.000079   -0.21      0.58   
   133. D(N  36,C  15,C  14,N  13)   -179.43 -0.000433    1.18   -178.26   
   134. D(O  17,C  15,C  14,C  16)    179.63 -0.000034    0.28    179.91   
   135. D(N  36,C  15,C  14,C  16)      1.43 -0.000249    0.75      2.18   
   136. D(O  17,C  15,C  14,N  13)     -1.24 -0.000218    0.71     -0.53   
   137. D(H   7,C  16,C  14,C  15)    177.22 -0.000308    0.91    178.14   
   138. D(C  18,C  16,C  14,N  13)   -122.59 -0.000169    0.41   -122.18   
   139. D(H   3,C  16,C  14,C  15)    -65.32 -0.000188    0.86    -64.47   
   140. D(H   3,C  16,C  14,N  13)    115.64 -0.000001    0.38    116.02   
   141. D(H   7,C  16,C  14,N  13)     -1.81 -0.000120    0.44     -1.38   
   142. D(C  19,C  18,C  16,H   3)    171.12 -0.000152    0.36    171.48   
   143. D(C  19,C  18,C  16,H   7)    -70.91  0.000042    0.28    -70.63   
   144. D(C  19,C  18,C  16,C  14)     49.08 -0.000271    0.38     49.46   
   145. D(C  23,C  18,C  16,H   7)    108.70  0.000203   -0.18    108.52   
   146. D(C  23,C  18,C  16,H   3)     -9.28  0.000009   -0.10     -9.38   
   147. D(C  20,C  19,C  18,C  16)    179.96  0.000158   -0.39    179.57   
   148. D(H   5,C  19,C  18,C  23)   -179.46 -0.000085    0.22   -179.24   
   149. D(C  20,C  19,C  18,C  23)      0.34  0.000001    0.06      0.40   
   150. D(H   5,C  19,C  18,C  16)      0.16  0.000071   -0.23     -0.07   
   151. D(C  21,C  20,C  19,C  18)     -0.19 -0.000008   -0.01     -0.20   
   152. D(C  21,C  20,C  19,H   5)    179.61  0.000078   -0.17    179.44   
   153. D(H   2,C  20,C  19,C  18)    179.85 -0.000034    0.05    179.90   
   154. D(H   2,C  20,C  19,H   5)     -0.35  0.000053   -0.11     -0.46   
   155. D(O  24,C  21,C  20,C  19)   -179.99  0.000001    0.00   -179.99   
   156. D(O  24,C  21,C  20,H   2)     -0.03  0.000025   -0.06     -0.08   
   157. D(C  22,C  21,C  20,C  19)     -0.32  0.000013   -0.04     -0.36   
   158. D(C  22,C  21,C  20,H   2)    179.64  0.000038   -0.10    179.54   
   159. D(H   6,C  22,C  21,C  20)   -178.97 -0.000049    0.12   -178.85   
   160. D(C  23,C  22,C  21,O  24)   -179.70  0.000005   -0.01   -179.71   
   161. D(C  23,C  22,C  21,C  20)      0.67 -0.000012    0.04      0.71   
   162. D(H   6,C  22,C  21,O  24)      0.66 -0.000032    0.07      0.73   
   163. D(C  18,C  23,C  22,C  21)     -0.53  0.000004    0.02     -0.51   
   164. D(C  18,C  23,C  22,H   6)    179.12  0.000042   -0.06    179.06   
   165. D(H   9,C  23,C  22,C  21)   -179.82 -0.000077    0.17   -179.65   
   166. D(H   9,C  23,C  22,H   6)     -0.17 -0.000039    0.09     -0.08   
   167. D(C  22,C  23,C  18,C  19)      0.02  0.000001   -0.07     -0.05   
   168. D(C  22,C  23,C  18,C  16)   -179.59 -0.000156    0.39   -179.20   
   169. D(H   9,C  23,C  18,C  19)    179.31  0.000084   -0.22    179.09   
   170. D(H   9,C  23,C  18,C  16)     -0.30 -0.000073    0.23     -0.07   
   171. D(C  25,O  24,C  21,C  22)      3.45 -0.000188    0.38      3.83   
   172. D(C  25,O  24,C  21,C  20)   -176.90 -0.000173    0.34   -176.57   
   173. D(C  26,C  25,O  24,C  21)    -72.98  0.000142   -0.05    -73.03   
   174. D(H   4,C  25,O  24,C  21)    167.88  0.000094   -0.01    167.87   
   175. D(H   0,C  25,O  24,C  21)     52.76 -0.000238    0.07     52.84   
   176. D(C  31,C  26,C  25,H   4)    -78.97 -0.000079    0.34    -78.63   
   177. D(C  31,C  26,C  25,H   0)     38.86 -0.000038    0.31     39.17   
   178. D(C  27,C  26,C  25,O  24)    -15.11 -0.000215    0.29    -14.82   
   179. D(C  27,C  26,C  25,H   4)    101.65 -0.000010    0.22    101.87   
   180. D(C  27,C  26,C  25,H   0)   -140.52  0.000032    0.19   -140.32   
   181. D(C  28,C  27,C  26,C  31)     -0.46  0.000073   -0.13     -0.60   
   182. D(C  28,C  27,C  26,C  25)    178.95  0.000002   -0.02    178.93   
   183. D(H   1,C  27,C  26,C  31)    179.42  0.000066   -0.12    179.30   
   184. D(H   1,C  27,C  26,C  25)     -1.17 -0.000004   -0.01     -1.18   
   185. D(C  29,C  28,C  27,C  26)     -0.24 -0.000019    0.04     -0.21   
   186. D(C  29,C  28,C  27,H   1)    179.87 -0.000014    0.02    179.90   
   187. D(H  12,C  28,C  27,C  26)    179.77  0.000002   -0.01    179.76   
   188. D(H  12,C  28,C  27,H   1)     -0.12  0.000008   -0.02     -0.14   
   189. D(C  30,C  29,C  28,H  12)   -179.51 -0.000054    0.10   -179.41   
   190. D(H   8,C  29,C  28,C  27)   -179.86  0.000045   -0.09   -179.96   
   191. D(H   8,C  29,C  28,H  12)      0.13  0.000024   -0.05      0.08   
   192. D(C  30,C  29,C  28,C  27)      0.50 -0.000033    0.06      0.55   
   193. D(C  31,C  30,C  29,C  28)     -0.03  0.000023   -0.05     -0.08   
   194. D(C  31,C  30,C  29,H   8)   -179.67 -0.000053    0.10   -179.57   
   195. D(H  10,C  30,C  29,C  28)    179.53  0.000126   -0.25    179.28   
   196. D(H  10,C  30,C  29,H   8)     -0.12  0.000050   -0.10     -0.22   
   197. D(N  32,C  31,C  30,C  29)    179.18  0.000105   -0.23    178.95   
   198. D(N  32,C  31,C  30,H  10)     -0.39  0.000005   -0.03     -0.43   
   199. D(C  26,C  31,C  30,C  29)     -0.70  0.000031   -0.05     -0.75   
   200. D(C  26,C  31,C  30,H  10)    179.73 -0.000069    0.14    179.87   
   201. D(N  32,C  31,C  26,C  27)   -178.94 -0.000157    0.33   -178.61   
   202. D(N  32,C  31,C  26,C  25)      1.67 -0.000088    0.21      1.89   
   203. D(C  30,C  31,C  26,C  27)      0.93 -0.000077    0.14      1.07   
   204. D(C  30,C  31,C  26,C  25)   -178.46 -0.000009    0.03   -178.43   
   205. D(O  34,N  32,C  31,C  30)   -161.52  0.000041   -0.15   -161.68   
   206. D(O  34,N  32,C  31,C  26)     18.35  0.000117   -0.33     18.02   
   207. D(O  33,N  32,C  31,C  30)     18.32  0.000272   -0.86     17.45   
   208. D(O  33,N  32,C  31,C  26)   -161.81  0.000348   -1.04   -162.86   
   209. D(H  37,N  36,C  35,H  39)   -176.01  0.000065   -0.31   -176.31   
   210. D(H  37,N  36,C  35,H  38)     64.63  0.000283   -0.38     64.24   
   211. D(C  15,N  36,C  35,H  40)    109.55 -0.000273    0.15    109.70   
   212. D(C  15,N  36,C  35,H  39)     -9.96 -0.000077    0.11     -9.85   
   213. D(C  15,N  36,C  35,H  38)   -129.32  0.000140    0.03   -129.30   
   214. D(H  37,N  36,C  15,O  17)    171.77 -0.000288    0.60    172.37   
   215. D(H  37,N  36,C  15,C  14)    -10.09 -0.000066    0.11     -9.98   
   216. D(C  35,N  36,C  15,O  17)      5.90 -0.000099    0.17      6.07   
   217. D(C  35,N  36,C  15,C  14)   -175.97  0.000123   -0.31   -176.28   
   218. D(C  43,C  41,N  13,C  14)    179.61  0.000042   -0.05    179.56   
   219. D(C  43,C  41,N  13,H  11)      0.06 -0.000001    0.03      0.08   
   220. D(O  42,C  41,N  13,C  14)     -0.33  0.000011   -0.04     -0.37   
   221. D(O  42,C  41,N  13,H  11)   -179.88 -0.000032    0.03   -179.85   
   222. D(H  46,C  43,C  41,N  13)     60.16  0.000135   -0.10     60.06   
   223. D(H  45,C  43,C  41,O  42)    120.42 -0.000042   -0.04    120.37   
   224. D(H  45,C  43,C  41,N  13)    -59.52 -0.000073   -0.04    -59.56   
   225. D(H  44,C  43,C  41,O  42)      0.20  0.000044   -0.08      0.12   
   226. D(H  44,C  43,C  41,N  13)   -179.74  0.000013   -0.07   -179.81   
    ----------------------------------------------------------------------------

Geometry step timings:
Preparation and reading OPT file:      0.000 s ( 0.197 %)
Internal coordinates            :      0.000 s ( 0.214 %)
B/P matrices and projection     :      0.005 s (41.776 %)
Hessian update/contruction      :      0.002 s (17.129 %)
Making the step                 :      0.004 s (31.318 %)
Converting the step to Cartesian:      0.001 s ( 4.297 %)
Storing new data                :      0.000 s ( 0.312 %)
Checking convergence            :      0.000 s ( 0.337 %)
Final printing                  :      0.001 s ( 4.404 %)
Total time                      :      0.012 s

Time for energy+gradient        :      0.124 s
Time for complete geometry iter :      0.137 s

         *************************************************************
         *                GEOMETRY OPTIMIZATION CYCLE   2            *
         *************************************************************
---------------------------------
CARTESIAN COORDINATES (ANGSTROEM)
---------------------------------
  H    -3.503330   -0.413086    2.471261
  H    -1.456339   -2.735739    0.629224
  H    -2.832549   -0.429149   -1.860272
  H     1.096865    3.211119   -0.592542
  H    -4.261342   -1.925369    1.976917
  H    -1.204564    1.192846   -2.766668
  H    -1.356161    0.314750    2.080283
  H     1.392044    2.134198   -1.960965
  H     0.766680   -4.193335    3.972013
  H     0.225099    1.921539    1.186679
  H    -0.822249   -3.052082    5.496329
  H    -0.212881    4.527313   -4.083997
  H     0.420406   -4.032075    1.524376
  N     0.366941    3.804594   -3.641838
  C    -0.021252    3.643147   -2.346368
  C    -1.127440    4.521132   -2.002635
  C     0.615301    2.673163   -1.414585
  O    -1.589411    5.300395   -2.855863
  C    -0.381192    1.686558   -0.852930
  C    -1.249155    1.007530   -1.704203
  C    -2.156603    0.098900   -1.206968
  C    -2.220818   -0.162346    0.163328
  C    -1.350856    0.501844    1.018589
  C    -0.447148    1.419311    0.506409
  O    -3.157089   -1.080911    0.545114
  C    -3.334119   -1.345553    1.918717
  C    -2.211718   -2.147175    2.531134
  C    -1.313515   -2.803020    1.696287
  C    -0.253628   -3.533560    2.202378
  C    -0.057955   -3.626002    3.573113
  C    -0.936637   -2.992339    4.424968
  C    -2.011640   -2.263511    3.914471
  N    -2.887913   -1.657012    4.869843
  O    -2.483485   -1.530338    6.016129
  O    -4.002991   -1.307698    4.507208
  C    -2.721634    5.247271   -0.296355
  N    -1.580839    4.479487   -0.727545
  H    -1.248981    3.750079   -0.116077
  H    -2.477840    5.810991    0.603906
  H    -2.979493    5.936707   -1.098769
  H    -3.575197    4.598537   -0.091370
  C     1.335805    3.187583   -4.390104
  O     2.074325    2.315659   -3.959003
  C     1.382344    3.707368   -5.802004
  H     2.160788    3.185830   -6.350712
  H     0.425397    3.547094   -6.291921
  H     1.594958    4.773335   -5.799023

----------------------------
CARTESIAN COORDINATES (A.U.)
----------------------------
  NO LB    ZA    FRAG    MASS        X           Y           Z
   0 H   1.0000    0     1.008   -6.620333   -0.780620    4.670007
   1 H   1.0000    0     1.008   -2.752082   -5.169797    1.189061
   2 H   1.0000    0     1.008   -5.352742   -0.810974   -3.515405
   3 H   1.0000    0     1.008    2.072774    6.068136   -1.119742
   4 H   1.0000    0     1.008   -8.052770   -3.638420    3.735832
   5 H   1.0000    0     1.008   -2.276295    2.254153   -5.228244
   6 H   1.0000    0     1.008   -2.562773    0.594790    3.931166
   7 H   1.0000    0     1.008    2.630583    4.033050   -3.705687
   8 H   1.0000    0     1.008    1.448816   -7.924254    7.506017
   9 H   1.0000    0     1.008    0.425376    3.631182    2.242497
  10 H   1.0000    0     1.008   -1.553825   -5.767599   10.386557
  11 H   1.0000    0     1.008   -0.402286    8.555382   -7.717635
  12 H   1.0000    0     1.008    0.794452   -7.619517    2.880653
  13 N   7.0000    0    14.007    0.693419    7.189640   -6.882077
  14 C   6.0000    0    12.011   -0.040161    6.884550   -4.433993
  15 C   6.0000    0    12.011   -2.130552    8.543702   -3.784433
[...]
  28 C   6.0000    0    12.011   -0.314884   -6.543382    4.461177
  29 C   6.0000    0    12.011   -0.172135   -6.716559    7.075257
  30 C   6.0000    0    12.011   -2.017564   -5.600705    8.530935
  31 C   6.0000    0    12.011   -4.014994   -4.291602    7.396231
  32 N   7.0000    0    14.007   -5.851801   -3.239949    9.032037
  33 O   8.0000    0    15.999   -5.399957   -3.174026   11.312724
  34 O   8.0000    0    15.999   -7.846041   -2.429238    8.150841
  35 C   6.0000    0    12.011   -4.850169    9.999378   -0.222523
  36 N   7.0000    0    14.007   -2.795969    8.504144   -1.205959
  37 H   1.0000    0     1.008   -2.106629    7.122294   -0.089886
  38 H   1.0000    0     1.008   -4.233331   11.033272    1.447723
  39 H   1.0000    0     1.008   -5.423609   11.328930   -1.683686
  40 H   1.0000    0     1.008   -6.451241    8.799058    0.273229
  41 C   6.0000    0    12.011    2.258225    6.017847   -8.449738
  42 O   8.0000    0    15.999    3.663346    4.331908   -7.716946
  43 C   6.0000    0    12.011    2.210513    6.988770  -11.115521
  44 H   1.0000    0     1.008    3.607544    5.979546  -12.228804
  45 H   1.0000    0     1.008    0.347928    6.706527  -11.935742
  46 H   1.0000    0     1.008    2.635390    8.998614  -11.140260

      -----------------------------------------------------------      
     |                   =====================                   |     
     |                           x T B                           |     
     |                   =====================                   |     
     |                         S. Grimme                         |     
     |          Mulliken Center for Theoretical Chemistry        |     
     |                    University of Bonn                     |     
      -----------------------------------------------------------      

   * xtb version 6.7.1 (edcfbbe) compiled by 'albert@albert-system' on 2024-07-22

   xtb is free software: you can redistribute it and/or modify it under
   the terms of the GNU Lesser General Public License as published by
   the Free Software Foundation, either version 3 of the License, or
   (at your option) any later version.
   
   xtb is distributed in the hope that it will be useful,
   but WITHOUT ANY WARRANTY; without even the implied warranty of
   MERCHANTABILITY or FITNESS FOR A PARTICULAR PURPOSE.  See the
   GNU Lesser General Public License for more details.
   
   Cite this work as:
   * C. Bannwarth, E. Caldeweyher, S. Ehlert, A. Hansen, P. Pracht,
     J. Seibert, S. Spicher, S. Grimme, WIREs Comput. Mol. Sci., 2020, 11,
     e01493. DOI: 10.1002/wcms.1493
   
   for GFN2-xTB:
   * C. Bannwarth, S. Ehlert and S. Grimme., J. Chem. Theory Comput., 2019,
     15, 1652-1671. DOI: 10.1021/acs.jctc.8b01176
   for GFN1-xTB:
   * S. Grimme, C. Bannwarth, P. Shushkov, J. Chem. Theory Comput., 2017,
     13, 1989-2009. DOI: 10.1021/acs.jctc.7b00118
   for GFN0-xTB:
   * P. Pracht, E. Caldeweyher, S. Ehlert, S. Grimme, ChemRxiv, 2019, preprint.
     DOI: 10.26434/chemrxiv.8326202.v1
   for GFN-FF:
   * S. Spicher and S. Grimme, Angew. Chem. Int. Ed., 2020, 59, 15665-15673.
     DOI: 10.1002/anie.202004239
   
   for ALPB and GBSA implicit solvation:
   * S. Ehlert, M. Stahn, S. Spicher, S. Grimme, J. Chem. Theory Comput.,
     2021, 17, 4250-4261. DOI: 10.1021/acs.jctc.1c00471
   
   for ddCOSMO and CPCM-X implicit solvation:
   * M. Stahn, S. Ehlert, S. Grimme, J. Phys. Chem. A,
     2023, XX, XXXX-XXXX. DOI: 10.1021/acs.jpca.3c04382
   
   for DFT-D4:
   * E. Caldeweyher, C. Bannwarth and S. Grimme, J. Chem. Phys., 2017,
     147, 034112. DOI: 10.1063/1.4993215
   * E. Caldeweyher, S. Ehlert, A. Hansen, H. Neugebauer, S. Spicher,
     C. Bannwarth and S. Grimme, J. Chem. Phys., 2019, 150, 154122.
     DOI: 10.1063/1.5090222
   * E. Caldeweyher, J.-M. Mewes, S. Ehlert and S. Grimme, Phys. Chem. Chem. Phys.
     2020, 22, 8499-8512. DOI: 10.1039/D0CP00502A
   
   for sTDA-xTB:
   * S. Grimme and C. Bannwarth, J. Chem. Phys., 2016, 145, 054103.
     DOI: 10.1063/1.4959605
   
   in the mass-spec context:
   * V. Asgeirsson, C. Bauer and S. Grimme, Chem. Sci., 2017, 8, 4879.
     DOI: 10.1039/c7sc00601b
   * J. Koopman and S. Grimme, ACS Omega 2019, 4, 12, 15120-15133.
     DOI: 10.1021/acsomega.9b02011
   
   for metadynamics refer to:
   * S. Grimme, J. Chem. Theory Comput., 2019, 155, 2847-2862
     DOI: 10.1021/acs.jctc.9b00143
   
   for SPH calculations refer to:
   * S. Spicher and S. Grimme, J. Chem. Theory Comput., 2021, 17, 1701-1714
     DOI: 10.1021/acs.jctc.0c01306
   
   for ONIOM refer to:
   * C. Plett, A. Katbashev, S. Ehlert, S. Grimme, M. Bursch,
     Phys. Chem. Chem. Phys., 2023, 25, 17860-17868. DOI: 10.1039/D3CP02178E
   
   for DIPRO refer to:
   * J. Kohn, N. Gildemeister, S. Grimme, D. Fazzi, A. Hansen,
     J. Chem. Phys., 2023, just accepted.
   
   for PTB refer to:
   * S. Grimme, M. Mueller, A. Hansen, J. Chem. Phys., 2023, 158, 124111.
     DOI: 10.1063/5.0137838
   
   with help from (in alphabetical order)
   P. Atkinson, C. Bannwarth, F. Bohle, G. Brandenburg, E. Caldeweyher
   M. Checinski, S. Dohm, S. Ehlert, S. Ehrlich, I. Gerasimov, C. Hölzer
   A. Katbashev, J. Kohn, J. Koopman, C. Lavigne, S. Lehtola, F. März, M. Müller,
   F. Musil, H. Neugebauer, J. Pisarek, C. Plett, P. Pracht, F. Pultar,
   J. Seibert, P. Shushkov, S. Spicher, M. Stahn, M. Steiner, T. Strunk,
   J. Stückrath, T. Rose, and J. Unsleber
   
 * started run on 2025/07/16 at 15:48:06.278     
   ID    Z sym.   atoms
    1    1 H      1-13, 38-41, 45-47
    2    7 N      14, 33, 37
    3    6 C      15-17, 19-24, 26-32, 36, 42, 44
    4    8 O      18, 25, 34, 35, 43

           -------------------------------------------------
          |                Calculation Setup                |
           -------------------------------------------------

          program call               : /home/esp/bin/orca_6_1_0/otool_xtb /home/esp/scriptDevelopment/drFrankenstein/11_PCY_CHARMM/04_torsion_scanning/torsion_NH1-CT1-CG321-CG2R61/scans_PCY_conformer_4/PCY_conformer_4_opt/orca_opt_XTB.xyz --grad -c 0 -u 0 -P 1 --namespace /home/esp/scriptDevelopment/drFrankenstein/11_PCY_CHARMM/04_torsion_scanning/torsion_NH1-CT1-CG321-CG2R61/scans_PCY_conformer_4/PCY_conformer_4_opt/orca_opt --input /home/esp/scriptDevelopment/drFrankenstein/11_PCY_CHARMM/04_torsion_scanning/torsion_NH1-CT1-CG321-CG2R61/scans_PCY_conformer_4/PCY_conformer_4_opt/orca_opt_XTB.input.tmp --alpb WATER --acc 0.200000
          calculation namespace      : /home/esp/scriptDevelopment/drFrankenstein/11_PCY_CHARMM/04_torsion_scanning/torsion_NH1-CT1-CG321-CG2R61/scans_PCY_conformer_4/PCY_conformer_4_opt/orca_opt
          coordinate file            : /home/esp/scriptDevelopment/drFrankenstein/11_PCY_CHARMM/04_torsion_scanning/torsion_NH1-CT1-CG321-CG2R61/scans_PCY_conformer_4/PCY_conformer_4_opt/orca_opt_XTB.xyz
          omp threads                :                     1


           -------------------------------------------------
          |                 G F N 2 - x T B                 |
           -------------------------------------------------

        Reference                      10.1021/acs.jctc.8b01176
      * Hamiltonian:
        H0-scaling (s, p, d)           1.850000    2.230000    2.230000
        zeta-weighting                 0.500000
      * Dispersion:
        s8                             2.700000
        a1                             0.520000
        a2                             5.000000
        s9                             5.000000
      * Repulsion:
        kExp                           1.500000    1.000000
        rExp                           1.000000
      * Coulomb:
        alpha                          2.000000
        third order                    shell-resolved
        anisotropic                    true
        a3                             3.000000
        a5                             4.000000
        cn-shift                       1.200000
        cn-exp                         4.000000
        max-rad                        5.000000

      * Solvation model:               ALPB
        Solvent                        WATER
        Parameter file                 internal GFN2-xTB/ALPB
        Dielectric constant                8.0200E+01
        Reference state                gsolv [1 M gas/solution]
        Free energy shift                  1.0808E-03 Eh       6.7819E-01 kcal/mol
        Temperature                        2.9815E+02 K
        Density                            1.0000E+00 kg/L
        Solvent mass                       1.8000E+01 g/mol
        Interaction kernel             P16
        Born radius scaling (c1)           1.4744E+00
        Born radii integrator          GBOBC
        Born offset                        0.0000E+00 a0       0.0000E+00 AA
        H-bond correction              true
        Ion screening                  false
        Surface tension                    1.0000E-05 Eh       1.5569E+01 dyn/cm
        Grid points                               230 per atom
q/qsh data taken from xtbrestart
CAMM data taken from xtbrestart

          ...................................................
          :                      SETUP                      :
          :.................................................:
          :  # basis functions                 128          :
          :  # atomic orbitals                 128          :
          :  # shells                           74          :
          :  # electrons                       141          :
          :  max. iterations                   250          :
          :  Hamiltonian                  GFN2-xTB          :
          :  restarted?                       true          :
          :  GBSA solvation                   true          :
          :  PC potential                    false          :
          :  electronic temp.          300.0000000     K    :
          :  accuracy                    0.2000000          :
          :  -> integral cutoff          0.3198970E+02      :
          :  -> integral neglect         0.2000000E-08      :
          :  -> SCF convergence          0.2000000E-06 Eh   :
          :  -> wf. convergence          0.2000000E-04 e    :
          :  Broyden damping             0.4000000          :
          :  net charge                          0          :
          :  unpaired electrons                  0          :
          ...................................................

 iter      E             dE          RMSdq      gap      omega  full diag
   1    -80.9441957 -0.809442E+02  0.141E-02    0.11       0.0  T
   2    -80.9441928  0.293956E-05  0.112E-02    0.11       1.3  T
   3    -80.9441599  0.328770E-04  0.260E-02    0.10       1.0  T
   4    -80.9441959 -0.359830E-04  0.107E-03    0.11      13.6  T
   5    -80.9441960 -0.508094E-07  0.336E-04    0.11      43.4  T
   6    -80.9441960 -0.727312E-09  0.274E-04    0.11      53.2  T
   7    -80.9441960 -0.337769E-08  0.650E-05    0.11     224.4  T
   8    -80.9441960 -0.194106E-09  0.145E-05    0.11    1004.4  T

   *** convergence criteria satisfied after 8 iterations ***

         #    Occupation            Energy/Eh            Energy/eV
      -------------------------------------------------------------
         1        2.0000           -0.7709297             -20.9781
       ...           ...                  ...                  ...
        65        2.0000           -0.4243154             -11.5462
        66        2.0000           -0.4177535             -11.3677
        67        2.0000           -0.4138387             -11.2611
        68        2.0000           -0.4059297             -11.0459
        69        2.0000           -0.4035299             -10.9806
        70        2.0000           -0.3841214             -10.4525
        71        0.8953           -0.3313386              -9.0162 (HOMO)
        72        0.1047           -0.3272612              -8.9052 (LUMO)
        73                         -0.2484290              -6.7601
        74                         -0.2353054              -6.4030
        75                         -0.2317979              -6.3075
        76                         -0.2270387              -6.1780
       ...                                ...                  ...
       128                          0.6583457              17.9145
      -------------------------------------------------------------
                  HL-Gap            0.0040774 Eh            0.1110 eV
             Fermi-level           -0.3435188 Eh           -9.3476 eV

 SCC (total)                   0 d,  0 h,  0 min,  0.072 sec
 SCC setup                      ...        0 min,  0.001 sec (  1.661%)
 Dispersion                     ...        0 min,  0.001 sec (  0.755%)
 classical contributions        ...        0 min,  0.000 sec (  0.103%)
 integral evaluation            ...        0 min,  0.007 sec (  9.538%)
 iterations                     ...        0 min,  0.037 sec ( 52.017%)
 molecular gradient             ...        0 min,  0.025 sec ( 34.512%)
 printout                       ...        0 min,  0.001 sec (  1.320%)

         :::::::::::::::::::::::::::::::::::::::::::::::::::::
         ::                     SUMMARY                     ::
         :::::::::::::::::::::::::::::::::::::::::::::::::::::
         :: total energy             -79.901343821408 Eh    ::
         :: total w/o Gsasa/hb       -79.898893365372 Eh    ::
         :: gradient norm              0.000453646765 Eh/a0 ::
         :: HOMO-LUMO gap              0.110951710626 eV    ::
         ::.................................................::
         :: SCC energy               -80.943747727444 Eh    ::
         :: -> isotropic ES            0.189454938516 Eh    ::
         :: -> anisotropic ES          0.000453538952 Eh    ::
         :: -> anisotropic XC          0.021516864143 Eh    ::
         :: -> dispersion             -0.050057036616 Eh    ::
         :: -> Gsolv                  -0.035655875237 Eh    ::
         ::    -> Gelec               -0.033205419201 Eh    ::
         ::    -> Gsasa                0.003901586702 Eh    ::
         ::    -> Ghb                 -0.007432802437 Eh    ::
         ::    -> Gshift               0.001080759698 Eh    ::
         :: repulsion energy           1.042403906036 Eh    ::
         :: add. restraining           0.000000000000 Eh    ::
         :: total charge              -0.000000000000 e     ::
         :::::::::::::::::::::::::::::::::::::::::::::::::::::


Property printout bound to 'properties.out'

           -------------------------------------------------
          | TOTAL ENERGY              -79.901343821408 Eh   |
          | GRADIENT NORM               0.000453646765 Eh/α |
          | HOMO-LUMO GAP               0.110951710626 eV   |
           -------------------------------------------------

------------------------------------------------------------------------
 * finished run on 2025/07/16 at 15:48:06.400     
------------------------------------------------------------------------
 total:
 * wall-time:     0 d,  0 h,  0 min,  0.122 sec
 *  cpu-time:     0 d,  0 h,  0 min,  0.073 sec
 * ratio c/w:     0.598 speedup
 SCF:
 * wall-time:     0 d,  0 h,  0 min,  0.072 sec
 *  cpu-time:     0 d,  0 h,  0 min,  0.054 sec
 * ratio c/w:     0.754 speedup


-------------------------   --------------------
FINAL SINGLE POINT ENERGY       -79.901343821410
-------------------------   --------------------


-------------
DIPOLE MOMENT
-------------
                                X             Y             Z
Total Dipole Moment    :      1.88100       0.09100      -1.52900
                        -----------------------------------------
Magnitude (a.u.)       :      2.42575
Magnitude (Debye)      :      6.16578

                                *** OPTIMIZATION RUN DONE ***


--------------------------------
SUGGESTED CITATIONS FOR THIS RUN
--------------------------------

Below you find a list of papers that are relevant to this ORCA run
We neither can nor want to force you to cite these papers, but we appreciate if you do
You receive ORCA, which is the product of decades of hard work by many enthusiastic individuals, for free
The only thing we kindly ask in return is that you cite our papers,
We deeply appreciate it, if you show your appreciation for ORCA by not just citing the generic ORCA reference.

Please note that relegating all ORCA citations to the supporting information does *not* help us.
SI sections are not indexed - citations you put there will not count into any citation statistics
But we need these citations in order to attract the funding resources that allow us to do what we are doing

Therefore, if you are a happy ORCA user, please consider citing a few of the papers listed below in the main body of your paper

In addition to the list printed below, the program has created the file /home/esp/scriptDevelopment/drFrankenstein/11_PCY_CHARMM/04_torsion_scanning/torsion_NH1-CT1-CG321-CG2R61/scans_PCY_conformer_4/PCY_conformer_4_opt/orca_opt.bibtex that contains the list in bibtex format
You can import this file easily into all common literature databanks and citation aid programs


List of essential papers. We consider these as the minimum necessary citations

  1. Bannwarth, C.; Ehlert, S.; Grimme, S.
     GFN2-xTB—An Accurate and Broadly Parametrized Self-Consistent Tight-Binding Quantum Chemical Method with Multipole Electrostatics and Density-Dependent Dispersion Contributions
     J. Chem. Theory Comput. 2019 15(3), 1652-1671
     doi.org/10.1021/acs.jctc.8b01176
  2. Neese, F.
     Software update: the ORCA program system, version 6.0
     WIRES Comput. Molec. Sci. 2025 15(1), e70019
     doi.org/10.1002/wcms.7019

List of papers to cite with high priority. The work reported in these papers was absolutely
necessary for this run to complete.
Our perspective: the developers of density functionals and basis sets usually get cited in chemistry papers
Good! But without the algorithms to do something with them, the functionals or basis sets would not do anything.
Hence, in our opinion, the algorithm design and method developments papers are equally worthy of getting cited

  1. Bannwarth, C.; Caldeweyher, E.; Ehlert, S.; Hansen, A.; Pracht, P.; Seibert, J.; Spicher, S.; Grimme, S.
     Extended tight-binding quantum chemistry methods
     WIRES Comput. Molec. Sci. 2020 11(2), e1493
     doi.org/10.1002/wcms.1493

List of suggested additional citations. These are papers that are important in the 'surrounding' of 
of this run, or papers that preceded the highly important papers. If you like your results we are grateful for a citation.

  1. Neese, F.
     The ORCA program system
     WIRES Comput. Molec. Sci. 2012 2(1), 73-78
     doi.org/10.1002/wcms.81
  2. Neese, F.
     Software update: the ORCA program system, version 4.0
     WIRES Comput. Molec. Sci. 2018 8(1), 1-6
     doi.org/10.1002/wcms.1327
  3. Neese, F.; Wennmohs, F.; Becker, U.; Riplinger, C.
     The ORCA quantum chemistry program package
     J. Chem. Phys. 2020 152(22), 224108
     doi.org/10.1063/5.0004608
  4. Neese, F.
     Software update: The ORCA program system—Version 5.0
     WIRES Comput. Molec. Sci. 2022 12(1), e1606
     doi.org/10.1002/wcms.1606

List of optional additional citations

  1. Neese, F.
     Approximate second-order SCF convergence for spin unrestricted wavefunctions
     Chem. Phys. Lett. 2000 325(1-3), 93-98
     doi.org/10.1016/s0009-2614(00)00662-x

Timings for individual modules:

Sum of individual times          ...        2.236 sec (=   0.037 min)
Geometry relaxation              ...        0.247 sec (=   0.004 min)  11.0 %
XTB module                       ...        1.989 sec (=   0.033 min)  89.0 %
                             ****ORCA TERMINATED NORMALLY****
TOTAL RUN TIME: 0 days 0 hours 0 minutes 2 seconds 368 msec
