
                                 *****************
                                 * O   R   C   A *
                                 *****************

                                            #,                                       
                                            ###                                      
                                            ####                                     
                                            #####                                    
                                            ######                                   
                                           ########,                                 
                                     ,,################,,,,,                         
                               ,,#################################,,                 
                          ,,##########################################,,             
                       ,#########################################, ''#####,          
                    ,#############################################,,   '####,        
                  ,##################################################,,,,####,       
                ,###########''''           ''''###############################       
              ,#####''   ,,,,##########,,,,          '''####'''          '####       
            ,##' ,,,,###########################,,,                        '##       
           ' ,,###''''                  '''############,,,                           
         ,,##''                                '''############,,,,        ,,,,,,###''
      ,#''                                            '''#######################'''  
     '                                                          ''''####''''         
             ,#######,   #######,   ,#######,      ##                                
            ,#'     '#,  ##    ##  ,#'     '#,    #''#        ,####,    ,#,          
            ##       ##  ##   ,#'  ##            #'  '#       #'       ,# #          
            ##       ##  #######   ##           ,######,      #####,      #          
            '#,     ,#'  ##    ##  '#,     ,#' ,#      #,     #,   #      #          
             '#######'   ##     ##  '#######'  #'      '#     '####' #    #          



                #########################################################
                #                        -***-                          #
                #          Department of theory and spectroscopy        #
                #                                                       #
                #                      Frank Neese                      #
                #                                                       #
                #     Directorship, Architecture, Infrastructure        #
                #                    SHARK, DRIVERS                     #
                #        Core code/Algorithms in most modules           #
                #                                                       #
                #        Max Planck Institute fuer Kohlenforschung      #
                #                Kaiser Wilhelm Platz 1                 #
                #                 D-45470 Muelheim/Ruhr                 #
                #                      Germany                          #
                #                                                       #
                #                  All rights reserved                  #
                #                        -***-                          #
                #########################################################


                         Program Version 6.1.0  -  RELEASE   -
                                (GIT: $679e74b$)
                          ($2025-06-10 18:02:51 +0200$)


 With contributions from (in alphabetic order):
[Max-Planck-Institut fuer Kohlenforschung]                               
  Daniel Aravena         : Magnetic Suceptibility                        
  Michael Atanasov       : Ab Initio Ligand Field Theory (pilot matlab implementation)
  Alexander A. Auer      : GIAO ZORA, VPT2 properties, NMR spectrum      
  Ute Becker             : All parallelization in ORCA, NUMFREQ, NUMCALC 
  Giovanni Bistoni       : ED, misc. LED, open-shell LED, HFLD           
  Dmytro Bykov           : pre 5.0 version of the SCF Hessian            
  Marcos Casanova-Páez   : Triplet and SCS-CIS(D). UHF-(DLPNO)-IP/EA/STEOM-CCSD. UHF-CVS-IP/STEOM-CCSD   
  Vijay G. Chilkuri      : MRCI spin determinant printing, contributions to CSF-ICE 
  Pauline Colinet        : FMM embedding                                 
  Dipayan Datta          : RHF DLPNO-CCSD density                        
  Achintya Kumar Dutta   : EOM-CC, STEOM-CC                              
  Nicolas Foglia         : Exact transition moments, OPA infrastructure, MCD improvements    
  Dmitry Ganyushin       : Spin-Orbit,Spin-Spin,Magnetic field MRCI      
  Miquel Garcia-Rates    : C-PCM and meta-GGA Hessian, CCSD/C-PCM, Gaussian charge scheme 
  Tiago L. C. Gouveia    : GS-ROHF, GS-ROCIS                             
  Yang Guo               : DLPNO-NEVPT2, F12-NEVPT2, CIM, IAO-localization        
  Andreas Hansen         : Spin unrestricted coupled pair/coupled cluster methods 
  Ingolf Harden          : AUTO-CI MPn and infrastructure                
  Benjamin Helmich-Paris : MC-RPA, TRAH-(SCF,CASSCF), AVAS, COSX integrals, SCF dyn. polar., MC-PDFT, srDFT 
  Lee Huntington         : MR-EOM, pCC                                   
  Robert Izsak           : Overlap fitted RIJCOSX, COSX-SCS-MP3, EOM     
  Riya Kayal             : Wick's Theorem for AUTO-CI, AUTO-CI UHF-CCSDT 
  Emily Kempfer          : AUTO-CI RHF CISDT and CCSDT, approximate NEVPT4
  Christian Kollmar      : KDIIS, OOCD, Brueckner-CCSD(T), CCSD density, CASPT2, CASPT2-K, improved NEVPT2 
  Axel Koslowski         : Symmetry handling                             
  Simone Kossmann        : meta-GGA functionals, TD-DFT gradient, OOMP2, (MP2 Hessian; deprecated post 5.0) 
  Lucas Lang             : DCDCAS, Hyperfine gauge corrections, ICE-SOC+SSC
  Marvin Lechner         : AUTO-CI (C++ implementation), FIC-MRCC        
  Spencer Leger          : CASSCF response                               
  Dagmar Lenk            : GEPOL surface, SMD, ORCA-2-JSON               
  Dimitrios Liakos       : Extrapolation schemes; Compound Job, Property file
  Dimitrios Manganas     : Further ROCIS development; embedding schemes. LFT, Crystal Embedding 
  Dimitrios Pantazis     : SARC Basis sets                               
  Anastasios Papadopoulos: AUTO-CI, single reference methods and gradients 
  Taras Petrenko         : pre 6.0 DFT Hessian and TD-DFT gradient,  ECA, NRVS 
  Petra Pikulova         : Analytic Raman intensities                    
  Peter Pinski           : DLPNO-MP2, DLPNO-MP2 Gradient                 
  Shashank Vittal Rao    : ES-AILFT, MagRelax                            
  Christoph Reimann      : Effective Core Potentials                     
  Marius Retegan         : Local ZFS, SOC                                
  Christoph Riplinger    : Optimizer, TS searches, QM/MM, DLPNO-CCSD(T), (RO)-DLPNO pert. Triples 
  Michael Roemelt        : Original ROCIS implementation, recursive CI coupling coefficients
  Masaaki Saitow         : Open-shell DLPNO-CCSD energy and density      
  Barbara Sandhoefer     : DKH picture change effects                    
  Yorick L. A. Schmerwitz: GMF and freeze-and-release deltaSCF, NEB S-IDPP initial path                    
  Kantharuban Sivalingam : CASSCF convergence/infrastructure, NEVPT2, NEVPT3, NEVPT4(SD), FIC-MRCI and CEPA variants
  Bernardo de Souza      : ESD, SOC TD-DFT                               
  Georgi L. Stoychev     : AutoAux, RI-MP2 NMR, DLPNO-MP2 response, X2C  
  Van Anh Tran           : RI-MP2 g-tensors                              
  Willem Van den Heuvel  : Paramagnetic NMR                              
  Zikuan Wang            : NOTCH, Electric field optimization            
  Frank Wennmohs         : Technical directorship and infrastructure     
  Hang Xu                : AUTO-CI-Response properties                   
                                                                         
[FACCTs GmbH]                                                            
  Markus Bursch, Nicolas Foglia, Miquel Garcia-Rates, Ingolf Harden, Hagen Neugebauer, Anastasios Papadopoulos, 
  Christoph Riplinger, Bernardo de Souza, Georgi L. Stoychev                                                    
                                                                 
  APM, various basis sets, CI-OPT, improved COSX, DLPNO-Multilevel,           
  DOCKER, DRACO, updates on ESD, Fragmentator, GOAT, IRC, LR-CPCM, L-BFGS, MBIS, meta-GGA TD-DFT gradient, ML-optimized integration grids, 
  MM, NACMEs, nearIR, NEB, NEB-TS, NL-DFT gradient (VV10), 2- and 3-layer-ONIOM, interface openCOSMO-RS, QMMM,   
  Crystal-QMMM, RESP, rigid body optimization, SF, symmetry and pop. for TD-DFT, various functionals, SOLVATOR                                   
                                                                         
[Other institutions]                                                     
  V. Asgeirsson          : NEB                                           
  Christoph Bannwarth    : sTDA-DFT, sTD-DFT, PBEh-3c, B97-3c, D3        
  Giovanni Bistoni       : ETS/NOCV, ADLD/ADEX, COVALED                  
  Martin Brehm           : Molecular dynamics                            
  Ronald Cardenas        : ETS/NOCV                                      
  Martina Colucci        : COVALED                                       
  Sebastian Ehlert       : rSCAN, r2SCAN, r2SCAN-3c, D4, dhf basis sets  
  Marvin Friede          : D4 for Fr, Ra, Ac-Lr                          
  Lars Goerigk           : TD-DFT with DH, B97 family of functionals     
  Stefan Grimme          : VdW corrections, initial TS optimization, DFT functionals, gCP, sTDA/sTD-DF 
  Waldemar Hujo          : DFT-NL                                        
  H. Jonsson             : NEB                                           
  Holger Kruse           : gCP                                           
  Marcel Mueller         : wB97X-3c, vDZP basis set                      
  Hagen Neugebauer       : wr2SCAN, Native XTB                           
  Gianluca Regni         : ADLD/ADEX                                     
  Tobias Risthaus        : pre 6.0 range-separated hybrid DFT and stability analysis
  Lukas Wittmann         : regularized MP2, r2SCAN double-hybrids, wr2SCAN        
                                                                         
We gratefully acknowledge several colleagues who have allowed us to      
interface, adapt or use parts of their codes:                            
  Ed Valeev, F. Pavosevic, A. Kumar             : LibInt (2-el integral package), F12 methods 
  Garnet Chan, S. Sharma, J. Yang, R. Olivares  : DMRG                   
  Ulf Ekstrom                                   : XCFun DFT Library      
  Mihaly Kallay                                 : mrcc  (arbitrary order and MRCC methods)
  Frank Weinhold                                : gennbo (NPA and NBO analysis)           
  Simon Mueller                                 : openCOSMO-RS                            
  Christopher J. Cramer and Donald G. Truhlar   : smd solvation model                     
  S Lehtola, MJT Oliveira, MAL Marques          : LibXC Library                           
  Liviu Ungur et al                             : ANISO software                          


 Your calculation uses the libint2 library for the computation of 2-el integrals
 For citations please refer to: http://libint.valeyev.net

 Your ORCA version has been built with support for libXC version: 7.0.0
 For citations please refer to: https://libxc.gitlab.io

 This ORCA versions uses:
   CBLAS   interface :  Fast vector & matrix operations
   LAPACKE interface :  Fast linear algebra routines
   SCALAPACK package :  Parallel linear algebra routines
   Shared memory     :  Shared parallel matrices
   BLAS/LAPACK       :  OpenBLAS 0.3.29  USE64BITINT DYNAMIC_ARCH NO_AFFINITY Haswell SINGLE_THREADED
        Core in use  :  Haswell
   Copyright (c) 2011-2014, The OpenBLAS Project


  ***********************************
  * Starting time: Wed Jul 16 15:48:04 2025
  * Host name:     MONSTER
  * Process ID:    442518
  * Working dir.:  /home/esp/scriptDevelopment/drFrankenstein
  ***********************************



***************************************
The coordinates will be read from file: /home/esp/scriptDevelopment/drFrankenstein/11_PCY_CHARMM/03_GOAT_conformers/PCY_conformer_41.xyz
***************************************


Your calculation utilizes the semiempirical GFN2-xTB method
Please cite in your paper:
Bannwarth, C.; Ehlert S.; Grimme, S. J. Chem. Theory Comput. 2019, 15, 1652.
   

================================================================================

================================================================================
                                        WARNINGS
                       Please study these warnings very carefully!
================================================================================


WARNING: Geometry Optimization
  ===> : Switching off AutoStart
         For restart on a previous wavefunction, please use MOREAD

WARNING: Found dipole moment calculation with XTB calculation
  ===> : Switching off dipole moment calculation


================================================================================
                                       INPUT FILE
================================================================================
NAME = /home/esp/scriptDevelopment/drFrankenstein/11_PCY_CHARMM/04_torsion_scanning/torsion_NH1-CT1-CG321-CG2R61/scans_PCY_conformer_41/PCY_conformer_41_opt/orca_opt.inp
|  1>  # --------------------------------- #
|  2>  #  Geometry Optimisation            #
|  3>  # --------------------------------- #
|  4> ! XTB2 ALPB(water) Opt
|  5> *xyzfile 0 1 /home/esp/scriptDevelopment/drFrankenstein/11_PCY_CHARMM/03_GOAT_conformers/PCY_conformer_41.xyz
|  6> 
|  7> 
|  8>                          ****END OF INPUT****
================================================================================

                       *****************************
                       * Geometry Optimization Run *
                       *****************************

Geometry optimization settings:
Update method            Update   .... BFGS
Choice of coordinates    CoordSys .... (2022) Redundant Internals
Initial Hessian          InHess   .... Almloef's Model
Max. no of cycles        MaxIter  .... 141

Convergence Tolerances:
Energy Change            TolE     ....  5.0000e-06 Eh
Max. Gradient            TolMAXG  ....  3.0000e-04 Eh/bohr
RMS Gradient             TolRMSG  ....  1.0000e-04 Eh/bohr
Max. Displacement        TolMAXD  ....  4.0000e-03 bohr
RMS Displacement         TolRMSD  ....  2.0000e-03 bohr
Strict Convergence                .... False

------------------------------------------------------------------------------
                        ORCA OPTIMIZATION COORDINATE SETUP
------------------------------------------------------------------------------

The optimization will be done in redundant internal coordinates (2022)
Making redundant internal coordinates   ...  (2022 redundants) done
Evaluating the initial hessian          ...  (Almloef) done
Evaluating the coordinates              ...  done
Calculating the B-matrix                .... done
Calculating the G-matrix                .... done
The number of degrees of freedom        ....  227

    -----------------------------------------------------------------
                    Redundant Internal Coordinates


    -----------------------------------------------------------------
         Definition                    Initial Value    Approx d2E/dq
    -----------------------------------------------------------------
      1. B(N  13,H  11)                  1.0269         0.406658   
      2. B(C  14,N  13)                  1.3622         0.619676   
      3. B(C  15,C  14)                  1.4521         0.497344   
      4. B(C  16,C  14)                  1.4893         0.433776   
      5. B(C  16,H   7)                  1.0943         0.354464   
      6. B(C  16,H   3)                  1.0916         0.358014   
      7. B(O  17,C  15)                  1.2374         0.980385   
      8. B(O  17,H  11)                  1.9758         0.012452   
      9. B(C  18,C  16)                  1.5098         0.402301   
     10. B(C  19,C  18)                  1.3895         0.625840   
     11. B(C  19,H   5)                  1.0814         0.371611   
     12. B(C  20,C  19)                  1.3827         0.641698   
     13. B(C  20,H   2)                  1.0798         0.373864   
     14. B(C  21,C  20)                  1.3896         0.625754   
     15. B(C  22,C  21)                  1.3912         0.622076   
     16. B(C  22,H   6)                  1.0794         0.374335   
     17. B(C  23,C  22)                  1.3803         0.647455   
     18. B(C  23,C  18)                  1.3896         0.625773   
     19. B(C  23,H   9)                  1.0794         0.374334   
     20. B(O  24,C  21)                  1.3822         0.575760   
     21. B(C  25,O  24)                  1.4247         0.492542   
     22. B(C  25,H   4)                  1.0938         0.355051   
     23. B(C  25,H   0)                  1.0915         0.358157   
     24. B(C  26,C  25)                  1.5102         0.401784   
     25. B(C  27,C  26)                  1.3901         0.624498   
     26. B(C  27,H   1)                  1.0795         0.374237   
     27. B(C  28,C  27)                  1.3837         0.639469   
     28. B(C  28,H  12)                  1.0793         0.374488   
     29. B(C  29,C  28)                  1.3863         0.633232   
     30. B(C  29,H   8)                  1.0787         0.375425   
     31. B(C  30,C  29)                  1.3800         0.648238   
     32. B(C  30,H  10)                  1.0795         0.374247   
     33. B(C  31,C  30)                  1.3916         0.621074   
     34. B(C  31,C  26)                  1.3985         0.605645   
     35. B(N  32,C  31)                  1.4408         0.464325   
     36. B(O  33,H   3)                  3.7896         0.010000   
     37. B(O  33,N  32)                  1.2131         0.960060   
     38. B(O  34,N  32)                  1.2162         0.949173   
     39. B(N  36,C  35)                  1.4397         0.466275   
     40. B(N  36,C  15)                  1.3584         0.628426   
     41. B(H  37,N  36)                  1.0068         0.437759   
     42. B(H  38,C  35)                  1.0888         0.361648   
     43. B(H  39,C  35)                  1.0913         0.358336   
     44. B(H  40,C  35)                  1.0930         0.356097   
     45. B(C  41,N  13)                  1.3716         0.598806   
     46. B(O  42,C  41)                  1.2143         1.066988   
     47. B(C  43,C  41)                  1.5103         0.401575   
     48. B(H  44,C  43)                  1.0882         0.362544   
     49. B(H  45,C  43)                  1.0881         0.362560   
     50. B(H  46,C  43)                  1.0860         0.365389   
     51. A(H  11,N  13,C  41)          118.9305         0.352820   
     52. A(C  14,N  13,C  41)          131.9973         0.425709   
     53. A(H  11,N  13,C  14)          109.0722         0.354874   
     54. A(N  13,C  14,C  15)          111.2664         0.414532   
     55. A(N  13,C  14,C  16)          123.5415         0.404611   
     56. A(C  15,C  14,C  16)          125.1694         0.391777   
     57. A(O  17,C  15,N  36)          122.6916         0.466654   
     58. A(C  14,C  15,O  17)          119.7823         0.450150   
     59. A(C  14,C  15,N  36)          117.4988         0.415567   
     60. A(H   3,C  16,H   7)          108.3686         0.289856   
     61. A(H   3,C  16,C  14)          108.6273         0.332093   
     62. A(C  14,C  16,C  18)          110.9458         0.377587   
     63. A(H   3,C  16,C  18)          109.0754         0.327983   
     64. A(H   7,C  16,C  14)          110.1008         0.331545   
     65. A(H   7,C  16,C  18)          109.6692         0.327445   
     66. A(C  16,C  18,C  23)          119.5684         0.402544   
     67. A(C  19,C  18,C  23)          118.8820         0.435525   
     68. A(C  16,C  18,C  19)          121.5473         0.402551   
     69. A(C  18,C  19,C  20)          120.8797         0.437502   
     70. A(H   5,C  19,C  18)          120.1031         0.355360   
     71. A(H   5,C  19,C  20)          118.9862         0.356873   
     72. A(H   2,C  20,C  21)          119.9680         0.355716   
     73. A(C  19,C  20,C  21)          119.7945         0.437491   
     74. A(H   2,C  20,C  19)          120.2242         0.357239   
     75. A(C  22,C  21,O  24)          118.7753         0.425795   
     76. A(C  20,C  21,O  24)          121.5432         0.426245   
     77. A(C  20,C  21,C  22)          119.6812         0.435050   
     78. A(C  21,C  22,C  23)          120.0541         0.437731   
     79. A(H   6,C  22,C  23)          121.0171         0.357859   
     80. A(H   6,C  22,C  21)          118.9266         0.355437   
     81. A(C  18,C  23,C  22)          120.6948         0.438199   
     82. A(H   9,C  23,C  22)          119.8548         0.357859   
     83. A(H   9,C  23,C  18)          119.4247         0.355794   
     84. A(C  21,O  24,C  25)          114.3851         0.405830   
     85. A(H   0,C  25,H   4)          109.3676         0.289949   
     86. A(O  24,C  25,C  26)          108.5878         0.383476   
     87. A(H   4,C  25,C  26)          111.8625         0.327465   
     88. A(H   0,C  25,C  26)          110.3695         0.327935   
     89. A(H   4,C  25,O  24)          111.3456         0.336660   
     90. A(H   0,C  25,O  24)          105.0959         0.337149   
     91. A(C  27,C  26,C  31)          117.4909         0.432803   
     92. A(C  25,C  26,C  31)          122.8017         0.400141   
     93. A(C  25,C  26,C  27)          119.0251         0.402308   
     94. A(C  26,C  27,C  28)          121.5323         0.437058   
     95. A(H   1,C  27,C  28)          119.8345         0.357089   
     96. A(H   1,C  27,C  26)          118.6314         0.355655   
     97. A(C  27,C  28,C  29)          120.1839         0.438154   
     98. A(H  12,C  28,C  29)          120.0608         0.356535   
     99. A(H  12,C  28,C  27)          119.7492         0.357129   
    100. A(C  28,C  29,C  30)          119.4772         0.439232   
    101. A(H   8,C  29,C  30)          120.0204         0.358109   
    102. A(H   8,C  29,C  28)          120.5024         0.356687   
    103. A(C  29,C  30,C  31)          120.0971         0.437699   
    104. A(H  10,C  30,C  31)          118.5548         0.355325   
    105. A(H  10,C  30,C  29)          121.3471         0.357918   
    106. A(C  30,C  31,N  32)          116.1312         0.409673   
    107. A(C  26,C  31,N  32)          122.6751         0.407853   
    108. A(C  26,C  31,C  30)          121.1865         0.432376   
    109. A(O  33,N  32,O  34)          124.5379         0.494742   
    110. A(C  31,N  32,O  34)          118.1620         0.436141   
    111. A(C  31,N  32,O  33)          117.2704         0.437038   
    112. A(N  36,C  35,H  38)          107.5065         0.334628   
    113. A(H  39,C  35,H  40)          109.0771         0.290106   
    114. A(H  38,C  35,H  40)          109.2305         0.290525   
    115. A(N  36,C  35,H  40)          111.1946         0.333770   
    116. A(H  38,C  35,H  39)          109.5410         0.290811   
    117. A(N  36,C  35,H  39)          110.2619         0.334117   
    118. A(C  35,N  36,H  37)          117.5911         0.342491   
    119. A(C  15,N  36,H  37)          118.9814         0.360205   
    120. A(C  15,N  36,C  35)          121.6826         0.408185   
    121. A(O  42,C  41,C  43)          124.0642         0.439739   
    122. A(N  13,C  41,C  43)          111.9631         0.396753   
    123. A(N  13,C  41,O  42)          123.9724         0.469776   
    124. A(H  45,C  43,H  46)          109.3774         0.291819   
    125. A(H  44,C  43,H  46)          109.2871         0.291817   
    126. A(C  41,C  43,H  46)          109.3014         0.328991   
    127. A(H  44,C  43,H  45)          108.5220         0.291460   
    128. A(C  41,C  43,H  45)          110.2775         0.328569   
    129. A(C  41,C  43,H  44)          110.0554         0.328567   
    130. D(C  16,C  14,N  13,C  41)      0.2815         0.031092   
    131. D(C  15,C  14,N  13,C  41)    178.6290         0.031092   
    132. D(C  16,C  14,N  13,H  11)   -179.7591         0.031092   
    133. D(C  15,C  14,N  13,H  11)     -1.4115         0.031092   
    134. D(N  36,C  15,C  14,N  13)   -179.6721         0.016846   
    135. D(O  17,C  15,C  14,C  16)   -179.5087         0.016846   
    136. D(N  36,C  15,C  14,C  16)     -1.3570         0.016846   
    137. D(O  17,C  15,C  14,N  13)      2.1762         0.016846   
    138. D(H   7,C  16,C  14,C  15)     59.5390         0.013891   
    139. D(C  18,C  16,C  14,N  13)    116.0633         0.013891   
    140. D(H   3,C  16,C  14,C  15)    178.0595         0.013891   
    141. D(H   3,C  16,C  14,N  13)     -3.8244         0.013891   
    142. D(H   7,C  16,C  14,N  13)   -122.3449         0.013891   
    143. D(C  19,C  18,C  16,H   3)   -120.6335         0.012005   
    144. D(C  19,C  18,C  16,H   7)     -2.0980         0.012005   
    145. D(C  19,C  18,C  16,C  14)    119.7463         0.012005   
    146. D(C  23,C  18,C  16,H   7)    178.4658         0.012005   
    147. D(C  23,C  18,C  16,H   3)     59.9303         0.012005   
    148. D(C  20,C  19,C  18,C  16)    179.8357         0.027134   
    149. D(H   5,C  19,C  18,C  23)   -178.6783         0.027134   
    150. D(C  20,C  19,C  18,C  23)     -0.7243         0.027134   
    151. D(H   5,C  19,C  18,C  16)      1.8818         0.027134   
    152. D(C  21,C  20,C  19,C  18)     -0.3526         0.028620   
    153. D(C  21,C  20,C  19,H   5)    177.6239         0.028620   
    154. D(H   2,C  20,C  19,C  18)   -179.0231         0.028620   
    155. D(H   2,C  20,C  19,H   5)     -1.0466         0.028620   
    156. D(O  24,C  21,C  20,C  19)   -179.2805         0.027126   
    157. D(O  24,C  21,C  20,H   2)     -0.6066         0.027126   
    158. D(C  22,C  21,C  20,C  19)      0.9321         0.027126   
    159. D(C  22,C  21,C  20,H   2)    179.6060         0.027126   
    160. D(H   6,C  22,C  21,C  20)   -179.8904         0.026789   
    161. D(C  23,C  22,C  21,O  24)    179.7776         0.026789   
    162. D(C  23,C  22,C  21,C  20)     -0.4291         0.026789   
    163. D(H   6,C  22,C  21,O  24)      0.3163         0.026789   
    164. D(C  18,C  23,C  22,C  21)     -0.6647         0.029172   
    165. D(C  18,C  23,C  22,H   6)    178.7852         0.029172   
    166. D(H   9,C  23,C  22,C  21)   -178.8116         0.029172   
    167. D(H   9,C  23,C  22,H   6)      0.6383         0.029172   
    168. D(C  22,C  23,C  18,C  19)      1.2341         0.027128   
    169. D(C  22,C  23,C  18,C  16)   -179.3147         0.027128   
    170. D(H   9,C  23,C  18,C  19)    179.3889         0.027128   
    171. D(H   9,C  23,C  18,C  16)     -1.1599         0.027128   
    172. D(C  25,O  24,C  21,C  22)   -112.3904         0.024089   
    173. D(C  25,O  24,C  21,C  20)     67.8203         0.024089   
    174. D(C  26,C  25,O  24,C  21)     68.1834         0.019162   
    175. D(H   4,C  25,O  24,C  21)    -55.4059         0.019162   
    176. D(H   0,C  25,O  24,C  21)   -173.7129         0.019162   
    177. D(C  31,C  26,C  25,H   4)     39.0539         0.011976   
    178. D(C  31,C  26,C  25,H   0)    161.0687         0.011976   
    179. D(C  27,C  26,C  25,O  24)     86.0638         0.011976   
    180. D(C  27,C  26,C  25,H   4)   -150.6569         0.011976   
    181. D(C  27,C  26,C  25,H   0)    -28.6422         0.011976   
    182. D(C  28,C  27,C  26,C  31)     -0.8986         0.027011   
    183. D(C  28,C  27,C  26,C  25)   -171.7017         0.027011   
    184. D(H   1,C  27,C  26,C  31)    178.6081         0.027011   
    185. D(H   1,C  27,C  26,C  25)      7.8051         0.027011   
    186. D(C  29,C  28,C  27,C  26)      1.8121         0.028408   
    187. D(C  29,C  28,C  27,H   1)   -177.6888         0.028408   
    188. D(H  12,C  28,C  27,C  26)   -179.0883         0.028408   
    189. D(H  12,C  28,C  27,H   1)      1.4108         0.028408   
    190. D(C  30,C  29,C  28,H  12)    179.9007         0.027821   
    191. D(H   8,C  29,C  28,C  27)    178.8933         0.027821   
    192. D(H   8,C  29,C  28,H  12)     -0.2035         0.027821   
    193. D(C  30,C  29,C  28,C  27)     -1.0025         0.027821   
    194. D(C  31,C  30,C  29,C  28)     -0.6625         0.029247   
    195. D(C  31,C  30,C  29,H   8)    179.4411         0.029247   
    196. D(H  10,C  30,C  29,C  28)    179.7122         0.029247   
    197. D(H  10,C  30,C  29,H   8)     -0.1841         0.029247   
    198. D(N  32,C  31,C  30,C  29)   -177.4729         0.026697   
    199. D(N  32,C  31,C  30,H  10)      2.1627         0.026697   
    200. D(C  26,C  31,C  30,C  29)      1.5798         0.026697   
    201. D(C  26,C  31,C  30,H  10)   -178.7846         0.026697   
    202. D(N  32,C  31,C  26,C  27)    178.1980         0.025313   
    203. D(N  32,C  31,C  26,C  25)    -11.3728         0.025313   
    204. D(C  30,C  31,C  26,C  27)     -0.7916         0.025313   
    205. D(C  30,C  31,C  26,C  25)    169.6376         0.025313   
    206. D(O  34,N  32,C  31,C  30)    141.9019         0.016988   
    207. D(O  34,N  32,C  31,C  26)    -37.1353         0.016988   
    208. D(O  33,N  32,C  31,C  30)    -36.2036         0.016988   
    209. D(O  33,N  32,C  31,C  26)    144.7591         0.016988   
    210. D(H  37,N  36,C  35,H  39)    -65.1246         0.018569   
    211. D(H  37,N  36,C  35,H  38)    175.5150         0.018569   
    212. D(C  15,N  36,C  35,H  40)   -108.7973         0.018569   
    213. D(C  15,N  36,C  35,H  39)    130.0834         0.018569   
    214. D(C  15,N  36,C  35,H  38)     10.7230         0.018569   
    215. D(H  37,N  36,C  15,O  17)   -170.6470         0.032047   
    216. D(H  37,N  36,C  15,C  14)     11.2591         0.032047   
    217. D(C  35,N  36,C  15,O  17)     -6.0599         0.032047   
    218. D(C  35,N  36,C  15,C  14)    175.8463         0.032047   
    219. D(C  43,C  41,N  13,C  14)    179.4660         0.028885   
    220. D(C  43,C  41,N  13,H  11)     -0.4902         0.028885   
    221. D(O  42,C  41,N  13,C  14)     -0.7242         0.028885   
    222. D(O  42,C  41,N  13,H  11)    179.3196         0.028885   
    223. D(H  46,C  43,C  41,N  13)    179.3566         0.011964   
    224. D(H  45,C  43,C  41,O  42)   -120.7294         0.011964   
    225. D(H  45,C  43,C  41,N  13)     59.0802         0.011964   
    226. D(H  44,C  43,C  41,O  42)    119.5747         0.011964   
    227. D(H  44,C  43,C  41,N  13)    -60.6157         0.011964   
    -----------------------------------------------------------------

Number of atoms                         .... 47
Number of degrees of freedom            .... 227


         *************************************************************
         *                GEOMETRY OPTIMIZATION CYCLE   1            *
         *************************************************************
---------------------------------
CARTESIAN COORDINATES (ANGSTROEM)
---------------------------------
  H    -1.912680   -0.825880    4.737970
  H     0.006870   -2.200330    4.544620
  H    -3.609690    1.306300    2.148980
  H    -1.575070    1.160660   -2.748460
  H    -3.101470   -0.669370    3.418140
  H    -3.829920    1.939650   -0.207930
  H     0.541220    0.513840    1.559580
  H    -2.906480    2.265230   -2.362260
  H     0.804330   -4.453610    1.004890
  H     0.327910    1.177250   -0.814180
  H    -1.136320   -3.367540   -0.095530
  H     0.541070    3.997490   -3.344670
  H     1.346540   -3.876820    3.349360
  N     0.076860    3.082580   -3.300220
  C    -0.974510    3.158340   -2.437330
  C    -1.074940    4.480000   -1.844260
  C    -1.869000    2.008660   -2.127130
  O    -0.281790    5.367390   -2.182670
  C    -1.759460    1.616520   -0.673230
  C    -2.859670    1.653800    0.174700
  C    -2.744410    1.288400    1.503290
  C    -1.515880    0.870660    2.000430
  C    -0.406760    0.842120    1.161120
  C    -0.530460    1.218930   -0.160980
  O    -1.363030    0.483370    3.318480
  C    -2.035760   -0.725760    3.658090
  C    -1.358220   -1.870680    2.943420
  C    -0.256420   -2.477650    3.535100
  C     0.505700   -3.412520    2.857040
  C     0.202900   -3.738730    1.544080
  C    -0.876120   -3.139350    0.927000
  C    -1.660090   -2.225540    1.624830
  N    -2.797240   -1.694390    0.917240
  O    -2.666940   -1.491500   -0.271620
  O    -3.826870   -1.513740    1.538770
  C    -2.210650    5.940940   -0.248000
  N    -2.079700    4.693940   -0.955440
  H    -2.602780    3.905440   -0.611370
  H    -1.522020    6.650260   -0.704300
  H    -3.231460    6.317670   -0.331890
  H    -1.958800    5.823870    0.809170
  C     0.569160    2.051240   -4.058620
  O     0.100010    0.931240   -4.067250
  C     1.766050    2.473400   -4.877350
  H     1.488050    3.274850   -5.558880
  H     2.560330    2.833150   -4.226380
  H     2.126620    1.624190   -5.450320

----------------------------
CARTESIAN COORDINATES (A.U.)
----------------------------
  NO LB    ZA    FRAG    MASS        X           Y           Z
   0 H   1.0000    0     1.008   -3.614441   -1.560687    8.953466
   1 H   1.0000    0     1.008    0.012982   -4.158021    8.588087
   2 H   1.0000    0     1.008   -6.821326    2.468549    4.060984
   3 H   1.0000    0     1.008   -2.976451    2.193330   -5.193837
   4 H   1.0000    0     1.008   -5.860929   -1.264926    6.459348
   5 H   1.0000    0     1.008   -7.237500    3.665407   -0.392931
   6 H   1.0000    0     1.008    1.022758    0.971017    2.947179
   7 H   1.0000    0     1.008   -5.492451    4.280664   -4.464024
   8 H   1.0000    0     1.008    1.519963   -8.416103    1.898967
   9 H   1.0000    0     1.008    0.619660    2.224680   -1.538577
  10 H   1.0000    0     1.008   -2.147334   -6.363728   -0.180526
  11 H   1.0000    0     1.008    1.022474    7.554161   -6.320510
  12 H   1.0000    0     1.008    2.544592   -7.326128    6.329373
  13 N   7.0000    0    14.007    0.145244    5.825232   -6.236512
  14 C   6.0000    0    12.011   -1.841557    5.968398   -4.605886
  15 C   6.0000    0    12.011   -2.031342    8.465973   -3.485146
  16 C   6.0000    0    12.011   -3.531898    3.795817   -4.019693
  17 O   8.0000    0    15.999   -0.532506   10.142897   -4.124649
  18 C   6.0000    0    12.011   -3.324898    3.054780   -1.272220
  19 C   6.0000    0    12.011   -5.403993    3.125229    0.330135
  20 C   6.0000    0    12.011   -5.186183    2.434723    2.840806
  21 C   6.0000    0    12.011   -2.864598    1.645309    3.780265
  22 C   6.0000    0    12.011   -0.768665    1.591376    2.194199
  23 C   6.0000    0    12.011   -1.002424    2.303444   -0.304208
  24 O   8.0000    0    15.999   -2.575753    0.913437    6.271018
  25 C   6.0000    0    12.011   -3.847029   -1.371488    6.912788
  26 C   6.0000    0    12.011   -2.566664   -3.535073    5.562258
  27 C   6.0000    0    12.011   -0.484564   -4.682080    6.680371
  28 C   6.0000    0    12.011    0.955635   -6.448728    5.399023
  29 C   6.0000    0    12.011    0.383425   -7.065176    2.917888
  30 C   6.0000    0    12.011   -1.655627   -5.932512    1.751776
  31 C   6.0000    0    12.011   -3.137115   -4.205661    3.070484
  32 N   7.0000    0    14.007   -5.286018   -3.201933    1.733332
  33 O   8.0000    0    15.999   -5.039786   -2.818527   -0.513287
  34 O   8.0000    0    15.999   -7.231736   -2.860554    2.907854
  35 C   6.0000    0    12.011   -4.177523   11.226750   -0.468652
  36 N   7.0000    0    14.007   -3.930063    8.870261   -1.805520
  37 H   1.0000    0     1.008   -4.918541    7.380212   -1.155322
  38 H   1.0000    0     1.008   -2.876201   12.567170   -1.330934
  39 H   1.0000    0     1.008   -6.106574   11.938666   -0.627181
  40 H   1.0000    0     1.008   -3.701596   11.005519    1.529110
  41 C   6.0000    0    12.011    1.075557    3.876282   -7.669680
  42 O   8.0000    0    15.999    0.188992    1.759789   -7.685989
  43 C   6.0000    0    12.011    3.337351    4.674049   -9.216856
  44 H   1.0000    0     1.008    2.812007    6.188570  -10.504761
  45 H   1.0000    0     1.008    4.838323    5.353878   -7.986701
  46 H   1.0000    0     1.008    4.018729    3.069274  -10.299612

      -----------------------------------------------------------      
     |                   =====================                   |     
     |                           x T B                           |     
     |                   =====================                   |     
     |                         S. Grimme                         |     
     |          Mulliken Center for Theoretical Chemistry        |     
     |                    University of Bonn                     |     
      -----------------------------------------------------------      

   * xtb version 6.7.1 (edcfbbe) compiled by 'albert@albert-system' on 2024-07-22

   xtb is free software: you can redistribute it and/or modify it under
   the terms of the GNU Lesser General Public License as published by
   the Free Software Foundation, either version 3 of the License, or
   (at your option) any later version.
   
   xtb is distributed in the hope that it will be useful,
   but WITHOUT ANY WARRANTY; without even the implied warranty of
   MERCHANTABILITY or FITNESS FOR A PARTICULAR PURPOSE.  See the
   GNU Lesser General Public License for more details.
   
   Cite this work as:
   * C. Bannwarth, E. Caldeweyher, S. Ehlert, A. Hansen, P. Pracht,
     J. Seibert, S. Spicher, S. Grimme, WIREs Comput. Mol. Sci., 2020, 11,
     e01493. DOI: 10.1002/wcms.1493
   
   for GFN2-xTB:
   * C. Bannwarth, S. Ehlert and S. Grimme., J. Chem. Theory Comput., 2019,
     15, 1652-1671. DOI: 10.1021/acs.jctc.8b01176
   for GFN1-xTB:
   * S. Grimme, C. Bannwarth, P. Shushkov, J. Chem. Theory Comput., 2017,
     13, 1989-2009. DOI: 10.1021/acs.jctc.7b00118
   for GFN0-xTB:
   * P. Pracht, E. Caldeweyher, S. Ehlert, S. Grimme, ChemRxiv, 2019, preprint.
     DOI: 10.26434/chemrxiv.8326202.v1
   for GFN-FF:
   * S. Spicher and S. Grimme, Angew. Chem. Int. Ed., 2020, 59, 15665-15673.
     DOI: 10.1002/anie.202004239
   
   for ALPB and GBSA implicit solvation:
   * S. Ehlert, M. Stahn, S. Spicher, S. Grimme, J. Chem. Theory Comput.,
     2021, 17, 4250-4261. DOI: 10.1021/acs.jctc.1c00471
   
   for ddCOSMO and CPCM-X implicit solvation:
   * M. Stahn, S. Ehlert, S. Grimme, J. Phys. Chem. A,
     2023, XX, XXXX-XXXX. DOI: 10.1021/acs.jpca.3c04382
   
   for DFT-D4:
   * E. Caldeweyher, C. Bannwarth and S. Grimme, J. Chem. Phys., 2017,
     147, 034112. DOI: 10.1063/1.4993215
   * E. Caldeweyher, S. Ehlert, A. Hansen, H. Neugebauer, S. Spicher,
     C. Bannwarth and S. Grimme, J. Chem. Phys., 2019, 150, 154122.
     DOI: 10.1063/1.5090222
   * E. Caldeweyher, J.-M. Mewes, S. Ehlert and S. Grimme, Phys. Chem. Chem. Phys.
     2020, 22, 8499-8512. DOI: 10.1039/D0CP00502A
   
   for sTDA-xTB:
   * S. Grimme and C. Bannwarth, J. Chem. Phys., 2016, 145, 054103.
     DOI: 10.1063/1.4959605
   
   in the mass-spec context:
   * V. Asgeirsson, C. Bauer and S. Grimme, Chem. Sci., 2017, 8, 4879.
     DOI: 10.1039/c7sc00601b
   * J. Koopman and S. Grimme, ACS Omega 2019, 4, 12, 15120-15133.
     DOI: 10.1021/acsomega.9b02011
   
   for metadynamics refer to:
   * S. Grimme, J. Chem. Theory Comput., 2019, 155, 2847-2862
     DOI: 10.1021/acs.jctc.9b00143
   
   for SPH calculations refer to:
   * S. Spicher and S. Grimme, J. Chem. Theory Comput., 2021, 17, 1701-1714
     DOI: 10.1021/acs.jctc.0c01306
   
   for ONIOM refer to:
   * C. Plett, A. Katbashev, S. Ehlert, S. Grimme, M. Bursch,
     Phys. Chem. Chem. Phys., 2023, 25, 17860-17868. DOI: 10.1039/D3CP02178E
   
   for DIPRO refer to:
   * J. Kohn, N. Gildemeister, S. Grimme, D. Fazzi, A. Hansen,
     J. Chem. Phys., 2023, just accepted.
   
   for PTB refer to:
   * S. Grimme, M. Mueller, A. Hansen, J. Chem. Phys., 2023, 158, 124111.
     DOI: 10.1063/5.0137838
   
   with help from (in alphabetical order)
   P. Atkinson, C. Bannwarth, F. Bohle, G. Brandenburg, E. Caldeweyher
   M. Checinski, S. Dohm, S. Ehlert, S. Ehrlich, I. Gerasimov, C. Hölzer
   A. Katbashev, J. Kohn, J. Koopman, C. Lavigne, S. Lehtola, F. März, M. Müller,
   F. Musil, H. Neugebauer, J. Pisarek, C. Plett, P. Pracht, F. Pultar,
   J. Seibert, P. Shushkov, S. Spicher, M. Stahn, M. Steiner, T. Strunk,
   J. Stückrath, T. Rose, and J. Unsleber
   
 * started run on 2025/07/16 at 15:48:04.127     
   ID    Z sym.   atoms
    1    1 H      1-13, 38-41, 45-47
    2    7 N      14, 33, 37
    3    6 C      15-17, 19-24, 26-32, 36, 42, 44
    4    8 O      18, 25, 34, 35, 43

           -------------------------------------------------
          |                Calculation Setup                |
           -------------------------------------------------

          program call               : /home/esp/bin/orca_6_1_0/otool_xtb /home/esp/scriptDevelopment/drFrankenstein/11_PCY_CHARMM/04_torsion_scanning/torsion_NH1-CT1-CG321-CG2R61/scans_PCY_conformer_41/PCY_conformer_41_opt/orca_opt_XTB.xyz --grad -c 0 -u 0 -P 1 --namespace /home/esp/scriptDevelopment/drFrankenstein/11_PCY_CHARMM/04_torsion_scanning/torsion_NH1-CT1-CG321-CG2R61/scans_PCY_conformer_41/PCY_conformer_41_opt/orca_opt --input /home/esp/scriptDevelopment/drFrankenstein/11_PCY_CHARMM/04_torsion_scanning/torsion_NH1-CT1-CG321-CG2R61/scans_PCY_conformer_41/PCY_conformer_41_opt/orca_opt_XTB.input.tmp --alpb WATER --acc 0.200000
          calculation namespace      : /home/esp/scriptDevelopment/drFrankenstein/11_PCY_CHARMM/04_torsion_scanning/torsion_NH1-CT1-CG321-CG2R61/scans_PCY_conformer_41/PCY_conformer_41_opt/orca_opt
          coordinate file            : /home/esp/scriptDevelopment/drFrankenstein/11_PCY_CHARMM/04_torsion_scanning/torsion_NH1-CT1-CG321-CG2R61/scans_PCY_conformer_41/PCY_conformer_41_opt/orca_opt_XTB.xyz
          omp threads                :                     1


           -------------------------------------------------
          |                 G F N 2 - x T B                 |
           -------------------------------------------------

        Reference                      10.1021/acs.jctc.8b01176
      * Hamiltonian:
        H0-scaling (s, p, d)           1.850000    2.230000    2.230000
        zeta-weighting                 0.500000
      * Dispersion:
        s8                             2.700000
        a1                             0.520000
        a2                             5.000000
        s9                             5.000000
      * Repulsion:
        kExp                           1.500000    1.000000
        rExp                           1.000000
      * Coulomb:
        alpha                          2.000000
        third order                    shell-resolved
        anisotropic                    true
        a3                             3.000000
        a5                             4.000000
        cn-shift                       1.200000
        cn-exp                         4.000000
        max-rad                        5.000000

      * Solvation model:               ALPB
        Solvent                        WATER
        Parameter file                 internal GFN2-xTB/ALPB
        Dielectric constant                8.0200E+01
        Reference state                gsolv [1 M gas/solution]
        Free energy shift                  1.0808E-03 Eh       6.7819E-01 kcal/mol
        Temperature                        2.9815E+02 K
        Density                            1.0000E+00 kg/L
        Solvent mass                       1.8000E+01 g/mol
        Interaction kernel             P16
        Born radius scaling (c1)           1.4744E+00
        Born radii integrator          GBOBC
        Born offset                        0.0000E+00 a0       0.0000E+00 AA
        H-bond correction              true
        Ion screening                  false
        Surface tension                    1.0000E-05 Eh       1.5569E+01 dyn/cm
        Grid points                               230 per atom

          ...................................................
          :                      SETUP                      :
          :.................................................:
          :  # basis functions                 128          :
          :  # atomic orbitals                 128          :
          :  # shells                           74          :
          :  # electrons                       141          :
          :  max. iterations                   250          :
          :  Hamiltonian                  GFN2-xTB          :
          :  restarted?                      false          :
          :  GBSA solvation                   true          :
          :  PC potential                    false          :
          :  electronic temp.          300.0000000     K    :
          :  accuracy                    0.2000000          :
          :  -> integral cutoff          0.3198970E+02      :
          :  -> integral neglect         0.2000000E-08      :
          :  -> SCF convergence          0.2000000E-06 Eh   :
          :  -> wf. convergence          0.2000000E-04 e    :
          :  Broyden damping             0.4000000          :
          :  net charge                          0          :
          :  unpaired electrons                  0          :
          ...................................................

 iter      E             dE          RMSdq      gap      omega  full diag
   1    -80.7258491 -0.807258E+02  0.487E+00    1.08       0.0  T
   2    -80.9326130 -0.206764E+00  0.252E+00    0.38       1.0  T
   3    -80.9373410 -0.472801E-02  0.117E+00    0.32       1.0  T
   4    -80.8267179  0.110623E+00  0.147E+00    0.14       1.0  T
   5    -80.9401061 -0.113388E+00  0.309E-01    0.53       1.0  T
   6    -80.9423952 -0.228904E-02  0.166E-01    0.39       1.0  T
   7    -80.9424638 -0.686211E-04  0.141E-01    0.36       1.0  T
   8    -80.9428140 -0.350240E-03  0.901E-02    0.26       1.0  T
   9    -80.9430310 -0.216967E-03  0.511E-02    0.21       1.0  T
  10    -80.9431299 -0.989459E-04  0.135E-02    0.18       1.1  T
  11    -80.9431354 -0.551026E-05  0.439E-03    0.17       3.3  T
  12    -80.9431363 -0.831744E-06  0.133E-03    0.17      11.0  T
  13    -80.9431363  0.181485E-07  0.113E-03    0.17      13.0  T
  14    -80.9431363 -0.351082E-07  0.443E-04    0.17      32.9  T
  15    -80.9431363 -0.749345E-08  0.120E-04    0.17     121.7  T
  16    -80.9431363  0.609361E-10  0.883E-05    0.17     165.2  T

   *** convergence criteria satisfied after 16 iterations ***

         #    Occupation            Energy/Eh            Energy/eV
      -------------------------------------------------------------
         1        2.0000           -0.7813182             -21.2608
       ...           ...                  ...                  ...
        65        2.0000           -0.4183989             -11.3852
        66        2.0000           -0.4177476             -11.3675
        67        2.0000           -0.4157894             -11.3142
        68        2.0000           -0.4064316             -11.0596
        69        2.0000           -0.4024331             -10.9508
        70        2.0000           -0.3938657             -10.7176
        71        0.9637           -0.3295572              -8.9677 (HOMO)
        72        0.0363           -0.3233243              -8.7981 (LUMO)
        73                         -0.2518363              -6.8528
        74                         -0.2431469              -6.6164
        75                         -0.2358474              -6.4177
        76                         -0.2322550              -6.3200
       ...                                ...                  ...
       128                          0.6473814              17.6161
      -------------------------------------------------------------
                  HL-Gap            0.0062330 Eh            0.1696 eV
             Fermi-level           -0.3440761 Eh           -9.3628 eV

 SCC (total)                   0 d,  0 h,  0 min,  0.089 sec
 SCC setup                      ...        0 min,  0.002 sec (  1.965%)
 Dispersion                     ...        0 min,  0.001 sec (  0.923%)
 classical contributions        ...        0 min,  0.000 sec (  0.140%)
 integral evaluation            ...        0 min,  0.007 sec (  7.641%)
 iterations                     ...        0 min,  0.058 sec ( 65.406%)
 molecular gradient             ...        0 min,  0.020 sec ( 23.106%)
 printout                       ...        0 min,  0.001 sec (  0.787%)

         :::::::::::::::::::::::::::::::::::::::::::::::::::::
         ::                     SUMMARY                     ::
         :::::::::::::::::::::::::::::::::::::::::::::::::::::
         :: total energy             -79.894973348650 Eh    ::
         :: total w/o Gsasa/hb       -79.892874129282 Eh    ::
         :: gradient norm              0.041381110991 Eh/a0 ::
         :: HOMO-LUMO gap              0.169607456323 eV    ::
         ::.................................................::
         :: SCC energy               -80.942236184491 Eh    ::
         :: -> isotropic ES            0.181906766730 Eh    ::
         :: -> anisotropic ES          0.001225154366 Eh    ::
         :: -> anisotropic XC          0.021706769674 Eh    ::
         :: -> dispersion             -0.054559470218 Eh    ::
         :: -> Gsolv                  -0.031262556748 Eh    ::
         ::    -> Gelec               -0.029163337380 Eh    ::
         ::    -> Gsasa                0.003483263179 Eh    ::
         ::    -> Ghb                 -0.006663242245 Eh    ::
         ::    -> Gshift               0.001080759698 Eh    ::
         :: repulsion energy           1.047262835841 Eh    ::
         :: add. restraining           0.000000000000 Eh    ::
         :: total charge               0.000000000000 e     ::
         :::::::::::::::::::::::::::::::::::::::::::::::::::::


Property printout bound to 'properties.out'

           -------------------------------------------------
          | TOTAL ENERGY              -79.894973348650 Eh   |
          | GRADIENT NORM               0.041381110991 Eh/α |
          | HOMO-LUMO GAP               0.169607456323 eV   |
           -------------------------------------------------

------------------------------------------------------------------------
 * finished run on 2025/07/16 at 15:48:04.258     
------------------------------------------------------------------------
 total:
 * wall-time:     0 d,  0 h,  0 min,  0.130 sec
 *  cpu-time:     0 d,  0 h,  0 min,  0.084 sec
 * ratio c/w:     0.649 speedup
 SCF:
 * wall-time:     0 d,  0 h,  0 min,  0.090 sec
 *  cpu-time:     0 d,  0 h,  0 min,  0.072 sec
 * ratio c/w:     0.808 speedup


-------------------------   --------------------
FINAL SINGLE POINT ENERGY       -79.894973348650
-------------------------   --------------------


-------------
DIPOLE MOMENT
-------------
                                X             Y             Z
Total Dipole Moment    :      1.16500      -0.44700       1.34700
                        -----------------------------------------
Magnitude (a.u.)       :      1.83615
Magnitude (Debye)      :      4.66712


------------------
CARTESIAN GRADIENT
------------------

   1   H   :   -0.000145873   -0.000486555    0.000606908
   2   H   :    0.000277532   -0.000053659    0.000583084
   3   H   :   -0.000014972    0.000002520   -0.000047163
   4   H   :    0.000344928   -0.000199125   -0.000210716
   5   H   :   -0.000174317   -0.000287278   -0.000187168
   6   H   :   -0.000494216    0.000153819   -0.000305935
   7   H   :    0.000358763   -0.000110250    0.000104753
   8   H   :   -0.000785940    0.000175774   -0.000213061
   9   H   :    0.000561848   -0.000451021   -0.000146583
  10   H   :    0.000087356    0.000124975   -0.000120681
  11   H   :    0.000124730    0.000020955   -0.000232660
  12   H   :   -0.001065374    0.000736620    0.001107681
  13   H   :    0.000598919   -0.000323878    0.000300941
  14   N   :    0.001501945    0.001558338   -0.000243785
  15   C   :   -0.001301778    0.000538277    0.000996288
  16   C   :    0.013288191    0.010010908   -0.007330214
  17   C   :    0.000990505   -0.000878955    0.000158133
  18   O   :   -0.008260940   -0.010539116    0.003161326
  19   C   :   -0.000210655    0.000011567   -0.000319833
  20   C   :    0.000662680   -0.000309899    0.000533898
  21   C   :    0.000200662   -0.000183756   -0.000120554
  22   C   :   -0.000084097   -0.000640698    0.001303609
  23   C   :   -0.000690662    0.000163552   -0.000210908
  24   C   :   -0.000062518    0.000093172    0.000071188
  25   O   :   -0.000913378   -0.002453123   -0.000425692
  26   C   :    0.001065853    0.003653584   -0.001588631
  27   C   :    0.000097144    0.000018777   -0.001204600
  28   C   :    0.000248229   -0.000614001   -0.001074398
  29   C   :   -0.000888091    0.000605186   -0.000437162
  30   C   :   -0.000493134    0.000598098    0.000591915
  31   C   :   -0.000989836    0.000716486    0.001457568
  32   C   :    0.003833585   -0.001637292    0.002281134
  33   N   :   -0.014604547    0.007265384   -0.009943600
  34   O   :    0.002059790   -0.002546102    0.009668041
  35   O   :    0.009295146   -0.002697116   -0.001593119
  36   C   :    0.001073540   -0.001862683   -0.001452768
  37   N   :   -0.004741068    0.000413650    0.003681101
  38   H   :    0.000452117    0.000316465    0.000175825
  39   H   :    0.000189507   -0.000441530   -0.000367887
  40   H   :   -0.000904750    0.000685915    0.000162626
  41   H   :    0.000085262    0.000371557    0.001031269
  42   C   :   -0.008405887   -0.015653834    0.001247802
  43   O   :    0.005287887    0.012478911    0.000052303
  44   C   :    0.001184258    0.000742221   -0.000750025
  45   H   :    0.000157404    0.000564459   -0.000751077
  46   H   :    0.000949653    0.000289225    0.000191381
  47   H   :    0.000254598    0.000059473   -0.000190552

Difference to translation invariance:
           :   -0.0000000000   -0.0000000000   -0.0000000000

Difference to rotation invariance:
           :   -0.0001294692   -0.0004126372   -0.0002262304

Norm of the Cartesian gradient     ...    0.0413811110
RMS gradient                       ...    0.0034849182
MAX gradient                       ...    0.0156538337
------------------------------------------------------------------------------
                         ORCA GEOMETRY RELAXATION STEP
------------------------------------------------------------------------------

Reading the OPT-File                    .... done
Getting information on internals        .... done
Copying old internal coords+grads       .... done
Making the new internal coordinates     .... (2022 redundants) done
Validating the new internal coordinates .... (2022 redundants) done
Calculating the B-matrix                .... done
Calculating the G,G- and P matrices     .... done
Transforming gradient to internals      .... done
Projecting the internal gradient        .... done
Number of atoms                         ....  47
Number of internal coordinates          .... 227
Current Energy                          ....   -79.894973349 Eh
Current gradient norm                   ....     0.041381111 Eh/bohr
Maximum allowed component of the step   ....  0.300
Current trust radius                    ....  0.300
Evaluating the initial hessian          ....  (Almloef) done
Projecting the Hessian                  .... done
Forming the augmented Hessian           .... done
Diagonalizing the augmented Hessian     .... done
Last element of RFO vector              ....  0.991196750
Lowest eigenvalues of augmented Hessian:
 -0.001275179  0.010225302  0.011963711  0.012015174  0.013916394
Length of the computed step             ....  0.133573020
The final length of the internal step   ....  0.133573020
Converting the step to Cartesian space:
 Initial RMS(Int)=    0.0088655527
Transforming coordinates:
 Iter   0:  RMS(Cart)=    0.1241209373 RMS(Int)=    0.4156051862
 Iter   5:  RMS(Cart)=    0.0000000826 RMS(Int)=    0.0000000224
done
Storing new coordinates                 .... done

                                .--------------------.
          ----------------------|Geometry convergence|-------------------------
          Item                value                   Tolerance       Converged
          ---------------------------------------------------------------------
          RMS gradient        0.0017761404            0.0001000000      NO
          MAX gradient        0.0136340763            0.0003000000      NO
          RMS step            0.0088655527            0.0020000000      NO
          MAX step            0.0493999849            0.0040000000      NO
          -------------------------------------------------------------------------
          ........................................................
          Max(Bonds)      0.0163      Max(Angles)    0.63
          Max(Dihed)        2.83      Max(Improp)    0.00
          ---------------------------------------------------------------------

The optimization has not yet converged - more geometry cycles are needed


    ---------------------------------------------------------------------------
                         Redundant Internal Coordinates
                            (Angstroem and degrees)

        Definition                    Value    dE/dq     Step     New-Value
    ----------------------------------------------------------------------------
     1. B(N  13,H  11)                1.0269 -0.000366  0.0001    1.0270   
     2. B(C  14,N  13)                1.3622  0.000317  0.0002    1.3625   
     3. B(C  15,C  14)                1.4521 -0.000317  0.0011    1.4532   
     4. B(C  16,C  14)                1.4893 -0.000106  0.0001    1.4895   
     5. B(C  16,H   7)                1.0943  0.000833 -0.0012    1.0931   
     6. B(C  16,H   3)                1.0916  0.000332 -0.0005    1.0911   
     7. B(O  17,C  15)                1.2374 -0.013634  0.0074    1.2447   
     8. B(O  17,H  11)                1.9758 -0.001219  0.0163    1.9922   
     9. B(C  18,C  16)                1.5098 -0.000331  0.0007    1.5105   
    10. B(C  19,C  18)                1.3895  0.000073  0.0000    1.3896   
    11. B(C  19,H   5)                1.0814  0.000592 -0.0008    1.0806   
    12. B(C  20,C  19)                1.3827 -0.000037  0.0001    1.3829   
    13. B(C  20,H   2)                1.0798 -0.000016  0.0000    1.0798   
    14. B(C  21,C  20)                1.3896 -0.000271  0.0003    1.3898   
    15. B(C  22,C  21)                1.3912 -0.000021  0.0001    1.3913   
    16. B(C  22,H   6)                1.0794  0.000388 -0.0005    1.0789   
    17. B(C  23,C  22)                1.3803 -0.000145  0.0002    1.3805   
    18. B(C  23,C  18)                1.3896 -0.000385  0.0003    1.3899   
    19. B(C  23,H   9)                1.0794  0.000138 -0.0002    1.0793   
    20. B(O  24,C  21)                1.3822 -0.001369  0.0014    1.3837   
    21. B(C  25,O  24)                1.4247 -0.003519  0.0040    1.4287   
    22. B(C  25,H   4)                1.0938  0.000194 -0.0003    1.0936   
    23. B(C  25,H   0)                1.0915  0.000629 -0.0009    1.0905   
    24. B(C  26,C  25)                1.5102 -0.000704  0.0010    1.5111   
    25. B(C  27,C  26)                1.3901  0.000158 -0.0001    1.3900   
    26. B(C  27,H   1)                1.0795  0.000599 -0.0008    1.0787   
    27. B(C  28,C  27)                1.3837 -0.000766  0.0006    1.3843   
    28. B(C  28,H  12)                1.0793  0.000744 -0.0010    1.0783   
    29. B(C  29,C  28)                1.3863 -0.000568  0.0004    1.3868   
    30. B(C  29,H   8)                1.0787  0.000686 -0.0010    1.0777   
    31. B(C  30,C  29)                1.3800  0.000112 -0.0001    1.3799   
    32. B(C  30,H  10)                1.0795  0.000186 -0.0003    1.0792   
    33. B(C  31,C  30)                1.3916 -0.001377  0.0012    1.3928   
    34. B(C  31,C  26)                1.3985 -0.001808  0.0015    1.4000   
    35. B(N  32,C  31)                1.4408  0.004096 -0.0047    1.4361   
    36. B(O  33,H   3)                3.7896 -0.000368  0.0066    3.7962   
    37. B(O  33,N  32)                1.2131 -0.009970  0.0054    1.2185   
    38. B(O  34,N  32)                1.2162 -0.009084  0.0051    1.2212   
    39. B(N  36,C  35)                1.4397 -0.001427  0.0016    1.4413   
    40. B(N  36,C  15)                1.3584  0.004881 -0.0041    1.3543   
    41. B(H  37,N  36)                1.0068 -0.000422  0.0005    1.0073   
    42. B(H  38,C  35)                1.0888 -0.000014  0.0000    1.0889   
    43. B(H  39,C  35)                1.0913  0.001071 -0.0016    1.0898   
    44. B(H  40,C  35)                1.0930  0.000978 -0.0014    1.0916   
    45. B(C  41,N  13)                1.3716  0.001045 -0.0009    1.3706   
    46. B(O  42,C  41)                1.2143 -0.013553  0.0067    1.2210   
    47. B(C  43,C  41)                1.5103  0.003290 -0.0043    1.5060   
    48. B(H  44,C  43)                1.0882  0.000848 -0.0012    1.0869   
    49. B(H  45,C  43)                1.0881  0.000901 -0.0013    1.0868   
    50. B(H  46,C  43)                1.0860  0.000138 -0.0002    1.0858   
    51. A(H  11,N  13,C  41)          118.93  0.000800   -0.21    118.73   
    52. A(C  14,N  13,C  41)          132.00 -0.000464   -0.00    132.00   
    53. A(H  11,N  13,C  14)          109.07 -0.000336    0.21    109.28   
    54. A(N  13,C  14,C  15)          111.27 -0.000212    0.29    111.56   
    55. A(N  13,C  14,C  16)          123.54 -0.000311   -0.08    123.46   
    56. A(C  15,C  14,C  16)          125.17  0.000516   -0.20    124.97   
    57. A(O  17,C  15,N  36)          122.69  0.000056   -0.09    122.60   
    58. A(C  14,C  15,O  17)          119.78  0.000412    0.10    119.88   
    59. A(C  14,C  15,N  36)          117.50 -0.000461   -0.03    117.47   
    60. A(H   3,C  16,H   7)          108.37 -0.000046   -0.06    108.30   
    61. A(H   3,C  16,C  14)          108.63  0.000095   -0.07    108.56   
    62. A(C  14,C  16,C  18)          110.95 -0.001045    0.18    111.12   
    63. A(H   3,C  16,C  18)          109.08  0.001049   -0.20    108.87   
    64. A(H   7,C  16,C  14)          110.10  0.000113    0.06    110.16   
    65. A(H   7,C  16,C  18)          109.67 -0.000131    0.08    109.75   
    66. A(C  16,C  18,C  23)          119.57 -0.000128    0.02    119.59   
    67. A(C  19,C  18,C  23)          118.88 -0.000070   -0.00    118.88   
    68. A(C  16,C  18,C  19)          121.55  0.000197   -0.02    121.53   
    69. A(C  18,C  19,C  20)          120.88  0.000171   -0.02    120.86   
    70. A(H   5,C  19,C  18)          120.10 -0.000187    0.02    120.12   
    71. A(H   5,C  19,C  20)          118.99  0.000024   -0.01    118.97   
    72. A(H   2,C  20,C  21)          119.97  0.000097   -0.01    119.95   
    73. A(C  19,C  20,C  21)          119.79 -0.000110    0.02    119.81   
    74. A(H   2,C  20,C  19)          120.22  0.000012    0.00    120.22   
    75. A(C  22,C  21,O  24)          118.78 -0.000484    0.05    118.83   
    76. A(C  20,C  21,O  24)          121.54  0.000628   -0.06    121.48   
    77. A(C  20,C  21,C  22)          119.68 -0.000144    0.01    119.69   
    78. A(C  21,C  22,C  23)          120.05  0.000285   -0.03    120.03   
    79. A(H   6,C  22,C  23)          121.02 -0.000186    0.02    121.04   
    80. A(H   6,C  22,C  21)          118.93 -0.000097    0.01    118.93   
    81. A(C  18,C  23,C  22)          120.69 -0.000131    0.02    120.72   
    82. A(H   9,C  23,C  22)          119.85  0.000156   -0.03    119.83   
    83. A(H   9,C  23,C  18)          119.42 -0.000023    0.00    119.43   
    84. A(C  21,O  24,C  25)          114.39 -0.000686    0.35    114.73   
    85. A(H   0,C  25,H   4)          109.37 -0.000016   -0.05    109.32   
    86. A(O  24,C  25,C  26)          108.59 -0.000806    0.25    108.83   
    87. A(H   4,C  25,C  26)          111.86 -0.000670    0.22    112.08   
    88. A(H   0,C  25,C  26)          110.37  0.000507   -0.19    110.18   
    89. A(H   4,C  25,O  24)          111.35  0.000702   -0.02    111.33   
    90. A(H   0,C  25,O  24)          105.10  0.000356   -0.24    104.86   
    91. A(C  27,C  26,C  31)          117.49  0.000498   -0.07    117.42   
    92. A(C  25,C  26,C  31)          122.80 -0.001967    0.31    123.11   
    93. A(C  25,C  26,C  27)          119.03  0.001485   -0.24    118.79   
    94. A(C  26,C  27,C  28)          121.53 -0.000306    0.04    121.57   
    95. A(H   1,C  27,C  28)          119.83 -0.000087    0.02    119.85   
    96. A(H   1,C  27,C  26)          118.63  0.000392   -0.06    118.57   
    97. A(C  27,C  28,C  29)          120.18 -0.000237    0.02    120.21   
    98. A(H  12,C  28,C  29)          120.06  0.000079   -0.01    120.05   
    99. A(H  12,C  28,C  27)          119.75  0.000158   -0.02    119.73   
   100. A(C  28,C  29,C  30)          119.48  0.000017   -0.01    119.47   
   101. A(H   8,C  29,C  30)          120.02  0.000258   -0.04    119.98   
   102. A(H   8,C  29,C  28)          120.50 -0.000275    0.05    120.55   
   103. A(C  29,C  30,C  31)          120.10  0.000080   -0.01    120.09   
   104. A(H  10,C  30,C  31)          118.55  0.000058   -0.01    118.54   
   105. A(H  10,C  30,C  29)          121.35 -0.000138    0.02    121.37   
   106. A(C  30,C  31,N  32)          116.13  0.000974   -0.14    115.99   
   107. A(C  26,C  31,N  32)          122.68 -0.000926    0.12    122.80   
   108. A(C  26,C  31,C  30)          121.19 -0.000051    0.02    121.20   
   109. A(O  33,N  32,O  34)          124.54  0.005302   -0.63    123.91   
   110. A(C  31,N  32,O  34)          118.16 -0.003204    0.40    118.56   
   111. A(C  31,N  32,O  33)          117.27 -0.002112    0.26    117.53   
   112. A(N  36,C  35,H  38)          107.51 -0.001170    0.22    107.72   
   113. A(H  39,C  35,H  40)          109.08 -0.000455    0.05    109.12   
   114. A(H  38,C  35,H  40)          109.23  0.000039    0.01    109.24   
   115. A(N  36,C  35,H  40)          111.19  0.000815   -0.15    111.04   
   116. A(H  38,C  35,H  39)          109.54  0.000106    0.01    109.55   
   117. A(N  36,C  35,H  39)          110.26  0.000655   -0.12    110.14   
   118. A(C  35,N  36,H  37)          117.59  0.000791   -0.08    117.51   
   119. A(C  15,N  36,H  37)          118.98  0.000953   -0.10    118.88   
   120. A(C  15,N  36,C  35)          121.68 -0.001824    0.30    121.98   
   121. A(O  42,C  41,C  43)          124.06  0.000559   -0.08    123.98   
   122. A(N  13,C  41,C  43)          111.96 -0.001278    0.18    112.14   
   123. A(N  13,C  41,O  42)          123.97  0.000720   -0.09    123.88   
   124. A(H  45,C  43,H  46)          109.38 -0.000410    0.09    109.46   
   125. A(H  44,C  43,H  46)          109.29 -0.000406    0.09    109.38   
   126. A(C  41,C  43,H  46)          109.30  0.000182   -0.02    109.28   
   127. A(H  44,C  43,H  45)          108.52 -0.000375    0.04    108.57   
   128. A(C  41,C  43,H  45)          110.28  0.000517   -0.10    110.18   
   129. A(C  41,C  43,H  44)          110.06  0.000475   -0.09    109.96   
   130. D(C  16,C  14,N  13,C  41)      0.28  0.000182   -0.33     -0.05   
   131. D(C  15,C  14,N  13,C  41)    178.63 -0.000049    0.09    178.72   
   132. D(C  16,C  14,N  13,H  11)   -179.76  0.000113   -0.21   -179.97   
   133. D(C  15,C  14,N  13,H  11)     -1.41 -0.000118    0.21     -1.20   
   134. D(N  36,C  15,C  14,N  13)   -179.67  0.000517   -1.32   -181.00   
   135. D(O  17,C  15,C  14,C  16)   -179.51  0.000054   -0.42   -179.93   
   136. D(N  36,C  15,C  14,C  16)     -1.36  0.000264   -0.89     -2.25   
   137. D(O  17,C  15,C  14,N  13)      2.18  0.000306   -0.85      1.33   
   138. D(H   7,C  16,C  14,C  15)     59.54  0.000266   -1.27     58.27   
   139. D(C  18,C  16,C  14,N  13)    116.06  0.000771   -1.05    115.01   
   140. D(H   3,C  16,C  14,C  15)    178.06  0.000333   -1.35    176.71   
   141. D(H   3,C  16,C  14,N  13)     -3.82  0.000054   -0.87     -4.69   
   142. D(H   7,C  16,C  14,N  13)   -122.34 -0.000013   -0.79   -123.13   
   143. D(C  19,C  18,C  16,H   3)   -120.63 -0.000496    1.06   -119.57   
   144. D(C  19,C  18,C  16,H   7)     -2.10 -0.000005    0.91     -1.19   
   145. D(C  19,C  18,C  16,C  14)    119.75 -0.000639    1.16    120.91   
   146. D(C  23,C  18,C  16,H   7)    178.47  0.000217    0.47    178.94   
   147. D(C  23,C  18,C  16,H   3)     59.93 -0.000274    0.62     60.55   
   148. D(C  20,C  19,C  18,C  16)    179.84  0.000463   -0.61    179.22   
   149. D(H   5,C  19,C  18,C  23)   -178.68 -0.000030    0.09   -178.59   
   150. D(C  20,C  19,C  18,C  23)     -0.72  0.000242   -0.18     -0.90   
   151. D(H   5,C  19,C  18,C  16)      1.88  0.000191   -0.34      1.54   
   152. D(C  21,C  20,C  19,C  18)     -0.35 -0.000202    0.29     -0.06   
   153. D(C  21,C  20,C  19,H   5)    177.62  0.000063    0.02    177.65   
   154. D(H   2,C  20,C  19,C  18)   -179.02 -0.000195    0.06   -178.96   
   155. D(H   2,C  20,C  19,H   5)     -1.05  0.000070   -0.20     -1.25   
   156. D(O  24,C  21,C  20,C  19)   -179.28 -0.000081   -0.50   -179.78   
   157. D(O  24,C  21,C  20,H   2)     -0.61 -0.000089   -0.28     -0.89   
   158. D(C  22,C  21,C  20,C  19)      0.93 -0.000051   -0.04      0.89   
   159. D(C  22,C  21,C  20,H   2)    179.61 -0.000059    0.18    179.79   
   160. D(H   6,C  22,C  21,C  20)   -179.89 -0.000004   -0.06   -179.95   
   161. D(C  23,C  22,C  21,O  24)    179.78  0.000281    0.14    179.92   
   162. D(C  23,C  22,C  21,C  20)     -0.43  0.000254   -0.31     -0.74   
   163. D(H   6,C  22,C  21,O  24)      0.32  0.000023    0.39      0.71   
   164. D(C  18,C  23,C  22,C  21)     -0.66 -0.000213    0.42     -0.24   
   165. D(C  18,C  23,C  22,H   6)    178.79  0.000050    0.17    178.95   
   166. D(H   9,C  23,C  22,C  21)   -178.81 -0.000291    0.38   -178.43   
   167. D(H   9,C  23,C  22,H   6)      0.64 -0.000027    0.12      0.76   
   168. D(C  22,C  23,C  18,C  19)      1.23 -0.000037   -0.18      1.05   
   169. D(C  22,C  23,C  18,C  16)   -179.31 -0.000251    0.25   -179.07   
   170. D(H   9,C  23,C  18,C  19)    179.39  0.000044   -0.14    179.25   
   171. D(H   9,C  23,C  18,C  16)     -1.16 -0.000171    0.29     -0.87   
   172. D(C  25,O  24,C  21,C  22)   -112.39 -0.001196    2.14   -110.25   
   173. D(C  25,O  24,C  21,C  20)     67.82 -0.001167    2.60     70.42   
   174. D(C  26,C  25,O  24,C  21)     68.18 -0.001332    2.83     71.01   
   175. D(H   4,C  25,O  24,C  21)    -55.41 -0.000394    2.40    -53.01   
   176. D(H   0,C  25,O  24,C  21)   -173.71 -0.000947    2.60   -171.11   
   177. D(C  31,C  26,C  25,H   4)     39.05 -0.000407    0.49     39.55   
   178. D(C  31,C  26,C  25,H   0)    161.07 -0.000531    0.45    161.52   
   179. D(C  27,C  26,C  25,O  24)     86.06 -0.000119    0.21     86.27   
   180. D(C  27,C  26,C  25,H   4)   -150.66 -0.000241    0.50   -150.16   
   181. D(C  27,C  26,C  25,H   0)    -28.64 -0.000365    0.46    -28.18   
   182. D(C  28,C  27,C  26,C  31)     -0.90  0.000062   -0.01     -0.91   
   183. D(C  28,C  27,C  26,C  25)   -171.70  0.000152   -0.06   -171.76   
   184. D(H   1,C  27,C  26,C  31)    178.61  0.000017   -0.03    178.58   
   185. D(H   1,C  27,C  26,C  25)      7.81  0.000108   -0.08      7.73   
   186. D(C  29,C  28,C  27,C  26)      1.81 -0.000046    0.07      1.89   
   187. D(C  29,C  28,C  27,H   1)   -177.69 -0.000004    0.09   -177.59   
   188. D(H  12,C  28,C  27,C  26)   -179.09 -0.000057    0.06   -179.03   
   189. D(H  12,C  28,C  27,H   1)      1.41 -0.000015    0.08      1.49   
   190. D(C  30,C  29,C  28,H  12)    179.90 -0.000019    0.00    179.90   
   191. D(H   8,C  29,C  28,C  27)    178.89 -0.000021    0.04    178.93   
   192. D(H   8,C  29,C  28,H  12)     -0.20 -0.000011    0.05     -0.15   
   193. D(C  30,C  29,C  28,C  27)     -1.00 -0.000030   -0.01     -1.02   
   194. D(C  31,C  30,C  29,C  28)     -0.66  0.000068   -0.10     -0.76   
   195. D(C  31,C  30,C  29,H   8)    179.44  0.000060   -0.15    179.29   
   196. D(H  10,C  30,C  29,C  28)    179.71 -0.000002    0.14    179.85   
   197. D(H  10,C  30,C  29,H   8)     -0.18 -0.000010    0.09     -0.10   
   198. D(N  32,C  31,C  30,C  29)   -177.47  0.000189   -0.05   -177.52   
   199. D(N  32,C  31,C  30,H  10)      2.16  0.000256   -0.28      1.88   
   200. D(C  26,C  31,C  30,C  29)      1.58 -0.000043    0.16      1.74   
   201. D(C  26,C  31,C  30,H  10)   -178.78  0.000024   -0.07   -178.85   
   202. D(N  32,C  31,C  26,C  27)    178.20 -0.000252    0.12    178.31   
   203. D(N  32,C  31,C  26,C  25)    -11.37  0.000007    0.11    -11.26   
   204. D(C  30,C  31,C  26,C  27)     -0.79 -0.000023   -0.11     -0.90   
   205. D(C  30,C  31,C  26,C  25)    169.64  0.000235   -0.11    169.52   
   206. D(O  34,N  32,C  31,C  30)    141.90 -0.000300    0.70    142.60   
   207. D(O  34,N  32,C  31,C  26)    -37.14 -0.000074    0.49    -36.65   
   208. D(O  33,N  32,C  31,C  30)    -36.20  0.000051    0.03    -36.17   
   209. D(O  33,N  32,C  31,C  26)    144.76  0.000277   -0.18    144.58   
   210. D(H  37,N  36,C  35,H  39)    -65.12 -0.000292    0.39    -64.73   
   211. D(H  37,N  36,C  35,H  38)    175.52 -0.000090    0.32    175.84   
   212. D(C  15,N  36,C  35,H  40)   -108.80  0.000299   -0.20   -109.00   
   213. D(C  15,N  36,C  35,H  39)    130.08 -0.000112   -0.07    130.01   
   214. D(C  15,N  36,C  35,H  38)     10.72  0.000091   -0.14     10.58   
   215. D(H  37,N  36,C  15,O  17)   -170.65  0.000346   -0.70   -171.35   
   216. D(H  37,N  36,C  15,C  14)     11.26  0.000122   -0.21     11.05   
   217. D(C  35,N  36,C  15,O  17)     -6.06  0.000132   -0.22     -6.28   
   218. D(C  35,N  36,C  15,C  14)    175.85 -0.000092    0.26    176.11   
   219. D(C  43,C  41,N  13,C  14)    179.47 -0.000077    0.15    179.62   
   220. D(C  43,C  41,N  13,H  11)     -0.49 -0.000002    0.02     -0.47   
   221. D(O  42,C  41,N  13,C  14)     -0.72 -0.000057    0.09     -0.63   
   222. D(O  42,C  41,N  13,H  11)    179.32  0.000018   -0.04    179.28   
   223. D(H  46,C  43,C  41,N  13)    179.36  0.000016   -0.02    179.34   
   224. D(H  45,C  43,C  41,O  42)   -120.73  0.000065    0.01   -120.72   
   225. D(H  45,C  43,C  41,N  13)     59.08  0.000085   -0.05     59.03   
   226. D(H  44,C  43,C  41,O  42)    119.57 -0.000098    0.08    119.65   
   227. D(H  44,C  43,C  41,N  13)    -60.62 -0.000078    0.02    -60.60   
    ----------------------------------------------------------------------------

Geometry step timings:
Preparation and reading OPT file:      0.000 s ( 0.248 %)
Internal coordinates            :      0.000 s ( 0.319 %)
B/P matrices and projection     :      0.005 s (42.331 %)
Hessian update/contruction      :      0.002 s (17.285 %)
Making the step                 :      0.004 s (30.491 %)
Converting the step to Cartesian:      0.001 s ( 4.224 %)
Storing new data                :      0.000 s ( 0.343 %)
Checking convergence            :      0.000 s ( 0.343 %)
Final printing                  :      0.001 s ( 4.407 %)
Total time                      :      0.013 s

Time for energy+gradient        :      0.137 s
Time for complete geometry iter :      0.151 s

         *************************************************************
         *                GEOMETRY OPTIMIZATION CYCLE   2            *
         *************************************************************
---------------------------------
CARTESIAN COORDINATES (ANGSTROEM)
---------------------------------
  H    -1.994608   -0.881389    4.693926
  H    -0.056757   -2.216648    4.596443
  H    -3.649062    1.351984    2.165150
  H    -1.684882    1.242496   -2.749053
  H    -3.135755   -0.753264    3.331735
  H    -3.870758    2.050719   -0.172566
  H     0.470464    0.450732    1.516504
  H    -2.958019    2.399038   -2.329671
  H     0.954495   -4.475043    1.115063
  H     0.253343    1.168626   -0.840717
  H    -0.949783   -3.433901   -0.085464
  H     0.557478    3.979295   -3.343634
  H     1.370138   -3.874574    3.479458
  N     0.053768    3.085775   -3.293134
  C    -0.989410    3.205941   -2.425009
  C    -1.041209    4.531954   -1.832744
  C    -1.930756    2.094519   -2.113411
  O    -0.204911    5.392265   -2.164190
  C    -1.816785    1.673765   -0.667278
  C    -2.906861    1.726504    0.192772
  C    -2.791063    1.322625    1.510191
  C    -1.571160    0.855831    1.985103
  C    -0.470373    0.816137    1.135282
  C    -0.596103    1.224642   -0.177323
  O    -1.417944    0.438573    3.295328
  C    -2.078942   -0.788051    3.610659
  C    -1.348983   -1.923231    2.930935
  C    -0.265420   -2.505396    3.578297
  C     0.546708   -3.429699    2.943963
  C     0.315264   -3.769028    1.619388
  C    -0.743114   -3.193878    0.946259
  C    -1.579532   -2.292421    1.600263
  N    -2.684919   -1.789473    0.833748
  O    -2.501090   -1.587403   -0.353791
  O    -3.753339   -1.611117    1.397724
  C    -2.145381    6.042135   -0.258207
  N    -2.047881    4.789341   -0.964097
  H    -2.612608    4.023647   -0.633113
  H    -1.421703    6.727135   -0.697144
  H    -3.148450    6.454937   -0.363210
  H    -1.921036    5.912966    0.802248
  C     0.500286    2.034127   -4.050316
  O    -0.018396    0.928737   -4.052983
  C     1.707675    2.399427   -4.873006
  H     1.460907    3.208949   -5.555052
  H     2.517177    2.726763   -4.225881
  H     2.028300    1.532904   -5.443416

----------------------------
CARTESIAN COORDINATES (A.U.)
----------------------------
  NO LB    ZA    FRAG    MASS        X           Y           Z
   0 H   1.0000    0     1.008   -3.769263   -1.665585    8.870235
   1 H   1.0000    0     1.008   -0.107255   -4.188859    8.686018
   2 H   1.0000    0     1.008   -6.895727    2.554880    4.091541
   3 H   1.0000    0     1.008   -3.183966    2.347977   -5.194957
   4 H   1.0000    0     1.008   -5.925719   -1.423463    6.296067
   5 H   1.0000    0     1.008   -7.314673    3.875298   -0.326103
   6 H   1.0000    0     1.008    0.889048    0.851761    2.865778
   7 H   1.0000    0     1.008   -5.589845    4.533525   -4.402440
   8 H   1.0000    0     1.008    1.803734   -8.456605    2.107164
   9 H   1.0000    0     1.008    0.478749    2.208383   -1.588725
  10 H   1.0000    0     1.008   -1.794830   -6.489132   -0.161504
  11 H   1.0000    0     1.008    1.053481    7.519777   -6.318552
  12 H   1.0000    0     1.008    2.589185   -7.321884    6.575222
[...]
  26 C   6.0000    0    12.011   -2.533707   -3.613556    5.529495
  27 C   6.0000    0    12.011   -0.492699   -4.714351    6.761662
  28 C   6.0000    0    12.011    1.067318   -6.437204    5.559453
  29 C   6.0000    0    12.011    0.661524   -7.051056    3.043160
  30 C   6.0000    0    12.011   -1.331943   -5.964946    1.762376
  31 C   6.0000    0    12.011   -2.943721   -4.285342    2.999984
  32 N   7.0000    0    14.007   -5.008687   -3.337582    1.556027
  33 O   8.0000    0    15.999   -4.681864   -2.995700   -0.709776
  34 O   8.0000    0    15.999   -7.041514   -2.954349    2.602553
  35 C   6.0000    0    12.011   -4.019873   11.388092   -0.422034
  36 N   7.0000    0    14.007   -3.829346    9.035704   -1.784131
  37 H   1.0000    0     1.008   -4.971990    7.615750   -1.234227
  38 H   1.0000    0     1.008   -2.624331   12.684040   -1.199201
  39 H   1.0000    0     1.008   -5.905074   12.182441   -0.651265
  40 H   1.0000    0     1.008   -3.640786   11.098383    1.583689
  41 C   6.0000    0    12.011    0.906849    3.817299   -7.664811
  42 O   8.0000    0    15.999   -0.145813    1.756287   -7.716763
  43 C   6.0000    0    12.011    3.226954    4.444494   -9.176011
  44 H   1.0000    0     1.008    2.833052    6.008203  -10.448808
  45 H   1.0000    0     1.008    4.759754    4.992642   -7.923041
  46 H   1.0000    0     1.008    3.787772    2.799951  -10.267153

      -----------------------------------------------------------      
     |                   =====================                   |     
     |                           x T B                           |     
     |                   =====================                   |     
     |                         S. Grimme                         |     
     |          Mulliken Center for Theoretical Chemistry        |     
     |                    University of Bonn                     |     
      -----------------------------------------------------------      

   * xtb version 6.7.1 (edcfbbe) compiled by 'albert@albert-system' on 2024-07-22

   xtb is free software: you can redistribute it and/or modify it under
   the terms of the GNU Lesser General Public License as published by
   the Free Software Foundation, either version 3 of the License, or
   (at your option) any later version.
   
   xtb is distributed in the hope that it will be useful,
   but WITHOUT ANY WARRANTY; without even the implied warranty of
   MERCHANTABILITY or FITNESS FOR A PARTICULAR PURPOSE.  See the
   GNU Lesser General Public License for more details.
   
   Cite this work as:
   * C. Bannwarth, E. Caldeweyher, S. Ehlert, A. Hansen, P. Pracht,
     J. Seibert, S. Spicher, S. Grimme, WIREs Comput. Mol. Sci., 2020, 11,
     e01493. DOI: 10.1002/wcms.1493
   
   for GFN2-xTB:
   * C. Bannwarth, S. Ehlert and S. Grimme., J. Chem. Theory Comput., 2019,
     15, 1652-1671. DOI: 10.1021/acs.jctc.8b01176
   for GFN1-xTB:
   * S. Grimme, C. Bannwarth, P. Shushkov, J. Chem. Theory Comput., 2017,
     13, 1989-2009. DOI: 10.1021/acs.jctc.7b00118
   for GFN0-xTB:
   * P. Pracht, E. Caldeweyher, S. Ehlert, S. Grimme, ChemRxiv, 2019, preprint.
     DOI: 10.26434/chemrxiv.8326202.v1
   for GFN-FF:
   * S. Spicher and S. Grimme, Angew. Chem. Int. Ed., 2020, 59, 15665-15673.
     DOI: 10.1002/anie.202004239
   
   for ALPB and GBSA implicit solvation:
   * S. Ehlert, M. Stahn, S. Spicher, S. Grimme, J. Chem. Theory Comput.,
     2021, 17, 4250-4261. DOI: 10.1021/acs.jctc.1c00471
   
   for ddCOSMO and CPCM-X implicit solvation:
   * M. Stahn, S. Ehlert, S. Grimme, J. Phys. Chem. A,
     2023, XX, XXXX-XXXX. DOI: 10.1021/acs.jpca.3c04382
   
   for DFT-D4:
   * E. Caldeweyher, C. Bannwarth and S. Grimme, J. Chem. Phys., 2017,
     147, 034112. DOI: 10.1063/1.4993215
   * E. Caldeweyher, S. Ehlert, A. Hansen, H. Neugebauer, S. Spicher,
     C. Bannwarth and S. Grimme, J. Chem. Phys., 2019, 150, 154122.
     DOI: 10.1063/1.5090222
   * E. Caldeweyher, J.-M. Mewes, S. Ehlert and S. Grimme, Phys. Chem. Chem. Phys.
     2020, 22, 8499-8512. DOI: 10.1039/D0CP00502A
   
   for sTDA-xTB:
   * S. Grimme and C. Bannwarth, J. Chem. Phys., 2016, 145, 054103.
     DOI: 10.1063/1.4959605
   
   in the mass-spec context:
   * V. Asgeirsson, C. Bauer and S. Grimme, Chem. Sci., 2017, 8, 4879.
     DOI: 10.1039/c7sc00601b
   * J. Koopman and S. Grimme, ACS Omega 2019, 4, 12, 15120-15133.
     DOI: 10.1021/acsomega.9b02011
   
   for metadynamics refer to:
   * S. Grimme, J. Chem. Theory Comput., 2019, 155, 2847-2862
     DOI: 10.1021/acs.jctc.9b00143
   
   for SPH calculations refer to:
   * S. Spicher and S. Grimme, J. Chem. Theory Comput., 2021, 17, 1701-1714
     DOI: 10.1021/acs.jctc.0c01306
   
   for ONIOM refer to:
   * C. Plett, A. Katbashev, S. Ehlert, S. Grimme, M. Bursch,
     Phys. Chem. Chem. Phys., 2023, 25, 17860-17868. DOI: 10.1039/D3CP02178E
   
   for DIPRO refer to:
   * J. Kohn, N. Gildemeister, S. Grimme, D. Fazzi, A. Hansen,
     J. Chem. Phys., 2023, just accepted.
   
   for PTB refer to:
   * S. Grimme, M. Mueller, A. Hansen, J. Chem. Phys., 2023, 158, 124111.
     DOI: 10.1063/5.0137838
   
   with help from (in alphabetical order)
   P. Atkinson, C. Bannwarth, F. Bohle, G. Brandenburg, E. Caldeweyher
   M. Checinski, S. Dohm, S. Ehlert, S. Ehrlich, I. Gerasimov, C. Hölzer
   A. Katbashev, J. Kohn, J. Koopman, C. Lavigne, S. Lehtola, F. März, M. Müller,
   F. Musil, H. Neugebauer, J. Pisarek, C. Plett, P. Pracht, F. Pultar,
   J. Seibert, P. Shushkov, S. Spicher, M. Stahn, M. Steiner, T. Strunk,
   J. Stückrath, T. Rose, and J. Unsleber
   
 * started run on 2025/07/16 at 15:48:05.469     
   ID    Z sym.   atoms
    1    1 H      1-13, 38-41, 45-47
    2    7 N      14, 33, 37
    3    6 C      15-17, 19-24, 26-32, 36, 42, 44
    4    8 O      18, 25, 34, 35, 43

           -------------------------------------------------
          |                Calculation Setup                |
           -------------------------------------------------

          program call               : /home/esp/bin/orca_6_1_0/otool_xtb /home/esp/scriptDevelopment/drFrankenstein/11_PCY_CHARMM/04_torsion_scanning/torsion_NH1-CT1-CG321-CG2R61/scans_PCY_conformer_41/PCY_conformer_41_opt/orca_opt_XTB.xyz --grad -c 0 -u 0 -P 1 --namespace /home/esp/scriptDevelopment/drFrankenstein/11_PCY_CHARMM/04_torsion_scanning/torsion_NH1-CT1-CG321-CG2R61/scans_PCY_conformer_41/PCY_conformer_41_opt/orca_opt --input /home/esp/scriptDevelopment/drFrankenstein/11_PCY_CHARMM/04_torsion_scanning/torsion_NH1-CT1-CG321-CG2R61/scans_PCY_conformer_41/PCY_conformer_41_opt/orca_opt_XTB.input.tmp --alpb WATER --acc 0.200000
          calculation namespace      : /home/esp/scriptDevelopment/drFrankenstein/11_PCY_CHARMM/04_torsion_scanning/torsion_NH1-CT1-CG321-CG2R61/scans_PCY_conformer_41/PCY_conformer_41_opt/orca_opt
          coordinate file            : /home/esp/scriptDevelopment/drFrankenstein/11_PCY_CHARMM/04_torsion_scanning/torsion_NH1-CT1-CG321-CG2R61/scans_PCY_conformer_41/PCY_conformer_41_opt/orca_opt_XTB.xyz
          omp threads                :                     1


           -------------------------------------------------
          |                 G F N 2 - x T B                 |
           -------------------------------------------------

        Reference                      10.1021/acs.jctc.8b01176
      * Hamiltonian:
        H0-scaling (s, p, d)           1.850000    2.230000    2.230000
        zeta-weighting                 0.500000
      * Dispersion:
        s8                             2.700000
        a1                             0.520000
        a2                             5.000000
        s9                             5.000000
      * Repulsion:
        kExp                           1.500000    1.000000
        rExp                           1.000000
      * Coulomb:
        alpha                          2.000000
        third order                    shell-resolved
        anisotropic                    true
        a3                             3.000000
        a5                             4.000000
        cn-shift                       1.200000
        cn-exp                         4.000000
        max-rad                        5.000000

      * Solvation model:               ALPB
        Solvent                        WATER
        Parameter file                 internal GFN2-xTB/ALPB
        Dielectric constant                8.0200E+01
        Reference state                gsolv [1 M gas/solution]
        Free energy shift                  1.0808E-03 Eh       6.7819E-01 kcal/mol
        Temperature                        2.9815E+02 K
        Density                            1.0000E+00 kg/L
        Solvent mass                       1.8000E+01 g/mol
        Interaction kernel             P16
        Born radius scaling (c1)           1.4744E+00
        Born radii integrator          GBOBC
        Born offset                        0.0000E+00 a0       0.0000E+00 AA
        H-bond correction              true
        Ion screening                  false
        Surface tension                    1.0000E-05 Eh       1.5569E+01 dyn/cm
        Grid points                               230 per atom
q/qsh data taken from xtbrestart
CAMM data taken from xtbrestart

          ...................................................
          :                      SETUP                      :
          :.................................................:
          :  # basis functions                 128          :
          :  # atomic orbitals                 128          :
          :  # shells                           74          :
          :  # electrons                       141          :
          :  max. iterations                   250          :
          :  Hamiltonian                  GFN2-xTB          :
          :  restarted?                       true          :
          :  GBSA solvation                   true          :
          :  PC potential                    false          :
          :  electronic temp.          300.0000000     K    :
          :  accuracy                    0.2000000          :
          :  -> integral cutoff          0.3198970E+02      :
          :  -> integral neglect         0.2000000E-08      :
          :  -> SCF convergence          0.2000000E-06 Eh   :
          :  -> wf. convergence          0.2000000E-04 e    :
          :  Broyden damping             0.4000000          :
          :  net charge                          0          :
          :  unpaired electrons                  0          :
          ...................................................

 iter      E             dE          RMSdq      gap      omega  full diag
   1    -80.9397540 -0.809398E+02  0.395E-03    0.14       0.0  T
   2    -80.9397536  0.479612E-06  0.384E-03    0.14       3.8  T
   3    -80.9397535  0.389913E-07  0.367E-03    0.14       4.0  T
   4    -80.9397541 -0.598734E-06  0.325E-04    0.14      44.8  T
   5    -80.9397541 -0.261110E-08  0.132E-04    0.14     110.4  T
   6    -80.9397541 -0.189814E-09  0.705E-05    0.14     206.8  T

   *** convergence criteria satisfied after 6 iterations ***

         #    Occupation            Energy/Eh            Energy/eV
      -------------------------------------------------------------
         1        2.0000           -0.7752349             -21.0952
       ...           ...                  ...                  ...
        65        2.0000           -0.4177865             -11.3685
        66        2.0000           -0.4176632             -11.3652
        67        2.0000           -0.4150620             -11.2944
        68        2.0000           -0.4066562             -11.0657
        69        2.0000           -0.4037090             -10.9855
        70        2.0000           -0.3947117             -10.7407
        71        0.9394           -0.3313506              -9.0165 (HOMO)
        72        0.0606           -0.3261414              -8.8748 (LUMO)
        73                         -0.2523984              -6.8681
        74                         -0.2422458              -6.5918
        75                         -0.2357558              -6.4152
        76                         -0.2324746              -6.3260
       ...                                ...                  ...
       128                          0.6451748              17.5561
      -------------------------------------------------------------
                  HL-Gap            0.0052091 Eh            0.1417 eV
             Fermi-level           -0.3458886 Eh           -9.4121 eV

 SCC (total)                   0 d,  0 h,  0 min,  0.065 sec
 SCC setup                      ...        0 min,  0.001 sec (  2.102%)
 Dispersion                     ...        0 min,  0.001 sec (  0.936%)
 classical contributions        ...        0 min,  0.000 sec (  0.120%)
 integral evaluation            ...        0 min,  0.007 sec ( 11.271%)
 iterations                     ...        0 min,  0.032 sec ( 48.785%)
 molecular gradient             ...        0 min,  0.023 sec ( 35.658%)
 printout                       ...        0 min,  0.001 sec (  1.091%)

         :::::::::::::::::::::::::::::::::::::::::::::::::::::
         ::                     SUMMARY                     ::
         :::::::::::::::::::::::::::::::::::::::::::::::::::::
         :: total energy             -79.896089932978 Eh    ::
         :: total w/o Gsasa/hb       -79.893713267721 Eh    ::
         :: gradient norm              0.000473444921 Eh/a0 ::
         :: HOMO-LUMO gap              0.141747962822 eV    ::
         ::.................................................::
         :: SCC energy               -80.938871949845 Eh    ::
         :: -> isotropic ES            0.189777770248 Eh    ::
         :: -> anisotropic ES         -0.000414286916 Eh    ::
         :: -> anisotropic XC          0.021965658785 Eh    ::
         :: -> dispersion             -0.054333506929 Eh    ::
         :: -> Gsolv                  -0.034708710862 Eh    ::
         ::    -> Gelec               -0.032332045605 Eh    ::
         ::    -> Gsasa                0.003525906872 Eh    ::
         ::    -> Ghb                 -0.006983331828 Eh    ::
         ::    -> Gshift               0.001080759698 Eh    ::
         :: repulsion energy           1.042782016867 Eh    ::
         :: add. restraining           0.000000000000 Eh    ::
         :: total charge               0.000000000000 e     ::
         :::::::::::::::::::::::::::::::::::::::::::::::::::::


Property printout bound to 'properties.out'

           -------------------------------------------------
          | TOTAL ENERGY              -79.896089932978 Eh   |
          | GRADIENT NORM               0.000473444921 Eh/α |
          | HOMO-LUMO GAP               0.141747962822 eV   |
           -------------------------------------------------

------------------------------------------------------------------------
 * finished run on 2025/07/16 at 15:48:05.562     
------------------------------------------------------------------------
 total:
 * wall-time:     0 d,  0 h,  0 min,  0.092 sec
 *  cpu-time:     0 d,  0 h,  0 min,  0.061 sec
 * ratio c/w:     0.660 speedup
 SCF:
 * wall-time:     0 d,  0 h,  0 min,  0.065 sec
 *  cpu-time:     0 d,  0 h,  0 min,  0.047 sec
 * ratio c/w:     0.725 speedup


-------------------------   --------------------
FINAL SINGLE POINT ENERGY       -79.896089932980
-------------------------   --------------------


-------------
DIPOLE MOMENT
-------------
                                X             Y             Z
Total Dipole Moment    :      1.22900      -0.16000       1.37500
                        -----------------------------------------
Magnitude (a.u.)       :      1.85113
Magnitude (Debye)      :      4.70519

                                *** OPTIMIZATION RUN DONE ***


--------------------------------
SUGGESTED CITATIONS FOR THIS RUN
--------------------------------

Below you find a list of papers that are relevant to this ORCA run
We neither can nor want to force you to cite these papers, but we appreciate if you do
You receive ORCA, which is the product of decades of hard work by many enthusiastic individuals, for free
The only thing we kindly ask in return is that you cite our papers,
We deeply appreciate it, if you show your appreciation for ORCA by not just citing the generic ORCA reference.

Please note that relegating all ORCA citations to the supporting information does *not* help us.
SI sections are not indexed - citations you put there will not count into any citation statistics
But we need these citations in order to attract the funding resources that allow us to do what we are doing

Therefore, if you are a happy ORCA user, please consider citing a few of the papers listed below in the main body of your paper

In addition to the list printed below, the program has created the file /home/esp/scriptDevelopment/drFrankenstein/11_PCY_CHARMM/04_torsion_scanning/torsion_NH1-CT1-CG321-CG2R61/scans_PCY_conformer_41/PCY_conformer_41_opt/orca_opt.bibtex that contains the list in bibtex format
You can import this file easily into all common literature databanks and citation aid programs


List of essential papers. We consider these as the minimum necessary citations

  1. Bannwarth, C.; Ehlert, S.; Grimme, S.
     GFN2-xTB—An Accurate and Broadly Parametrized Self-Consistent Tight-Binding Quantum Chemical Method with Multipole Electrostatics and Density-Dependent Dispersion Contributions
     J. Chem. Theory Comput. 2019 15(3), 1652-1671
     doi.org/10.1021/acs.jctc.8b01176
  2. Neese, F.
     Software update: the ORCA program system, version 6.0
     WIRES Comput. Molec. Sci. 2025 15(1), e70019
     doi.org/10.1002/wcms.7019

List of papers to cite with high priority. The work reported in these papers was absolutely
necessary for this run to complete.
Our perspective: the developers of density functionals and basis sets usually get cited in chemistry papers
Good! But without the algorithms to do something with them, the functionals or basis sets would not do anything.
Hence, in our opinion, the algorithm design and method developments papers are equally worthy of getting cited

  1. Bannwarth, C.; Caldeweyher, E.; Ehlert, S.; Hansen, A.; Pracht, P.; Seibert, J.; Spicher, S.; Grimme, S.
     Extended tight-binding quantum chemistry methods
     WIRES Comput. Molec. Sci. 2020 11(2), e1493
     doi.org/10.1002/wcms.1493

List of suggested additional citations. These are papers that are important in the 'surrounding' of 
of this run, or papers that preceded the highly important papers. If you like your results we are grateful for a citation.

  1. Neese, F.
     The ORCA program system
     WIRES Comput. Molec. Sci. 2012 2(1), 73-78
     doi.org/10.1002/wcms.81
  2. Neese, F.
     Software update: the ORCA program system, version 4.0
     WIRES Comput. Molec. Sci. 2018 8(1), 1-6
     doi.org/10.1002/wcms.1327
  3. Neese, F.; Wennmohs, F.; Becker, U.; Riplinger, C.
     The ORCA quantum chemistry program package
     J. Chem. Phys. 2020 152(22), 224108
     doi.org/10.1063/5.0004608
  4. Neese, F.
     Software update: The ORCA program system—Version 5.0
     WIRES Comput. Molec. Sci. 2022 12(1), e1606
     doi.org/10.1002/wcms.1606

List of optional additional citations

  1. Neese, F.
     Approximate second-order SCF convergence for spin unrestricted wavefunctions
     Chem. Phys. Lett. 2000 325(1-3), 93-98
     doi.org/10.1016/s0009-2614(00)00662-x

Timings for individual modules:

Sum of individual times          ...        1.425 sec (=   0.024 min)
Geometry relaxation              ...        0.160 sec (=   0.003 min)  11.2 %
XTB module                       ...        1.264 sec (=   0.021 min)  88.8 %
                             ****ORCA TERMINATED NORMALLY****
TOTAL RUN TIME: 0 days 0 hours 0 minutes 1 seconds 521 msec
