
                                 *****************
                                 * O   R   C   A *
                                 *****************

                                            #,                                       
                                            ###                                      
                                            ####                                     
                                            #####                                    
                                            ######                                   
                                           ########,                                 
                                     ,,################,,,,,                         
                               ,,#################################,,                 
                          ,,##########################################,,             
                       ,#########################################, ''#####,          
                    ,#############################################,,   '####,        
                  ,##################################################,,,,####,       
                ,###########''''           ''''###############################       
              ,#####''   ,,,,##########,,,,          '''####'''          '####       
            ,##' ,,,,###########################,,,                        '##       
           ' ,,###''''                  '''############,,,                           
         ,,##''                                '''############,,,,        ,,,,,,###''
      ,#''                                            '''#######################'''  
     '                                                          ''''####''''         
             ,#######,   #######,   ,#######,      ##                                
            ,#'     '#,  ##    ##  ,#'     '#,    #''#        ,####,    ,#,          
            ##       ##  ##   ,#'  ##            #'  '#       #'       ,# #          
            ##       ##  #######   ##           ,######,      #####,      #          
            '#,     ,#'  ##    ##  '#,     ,#' ,#      #,     #,   #      #          
             '#######'   ##     ##  '#######'  #'      '#     '####' #    #          



                #########################################################
                #                        -***-                          #
                #          Department of theory and spectroscopy        #
                #                                                       #
                #                      Frank Neese                      #
                #                                                       #
                #     Directorship, Architecture, Infrastructure        #
                #                    SHARK, DRIVERS                     #
                #        Core code/Algorithms in most modules           #
                #                                                       #
                #        Max Planck Institute fuer Kohlenforschung      #
                #                Kaiser Wilhelm Platz 1                 #
                #                 D-45470 Muelheim/Ruhr                 #
                #                      Germany                          #
                #                                                       #
                #                  All rights reserved                  #
                #                        -***-                          #
                #########################################################


                         Program Version 6.1.0  -  RELEASE   -
                                (GIT: $679e74b$)
                          ($2025-06-10 18:02:51 +0200$)


 With contributions from (in alphabetic order):
[Max-Planck-Institut fuer Kohlenforschung]                               
  Daniel Aravena         : Magnetic Suceptibility                        
  Michael Atanasov       : Ab Initio Ligand Field Theory (pilot matlab implementation)
  Alexander A. Auer      : GIAO ZORA, VPT2 properties, NMR spectrum      
  Ute Becker             : All parallelization in ORCA, NUMFREQ, NUMCALC 
  Giovanni Bistoni       : ED, misc. LED, open-shell LED, HFLD           
  Dmytro Bykov           : pre 5.0 version of the SCF Hessian            
  Marcos Casanova-Páez   : Triplet and SCS-CIS(D). UHF-(DLPNO)-IP/EA/STEOM-CCSD. UHF-CVS-IP/STEOM-CCSD   
  Vijay G. Chilkuri      : MRCI spin determinant printing, contributions to CSF-ICE 
  Pauline Colinet        : FMM embedding                                 
  Dipayan Datta          : RHF DLPNO-CCSD density                        
  Achintya Kumar Dutta   : EOM-CC, STEOM-CC                              
  Nicolas Foglia         : Exact transition moments, OPA infrastructure, MCD improvements    
  Dmitry Ganyushin       : Spin-Orbit,Spin-Spin,Magnetic field MRCI      
  Miquel Garcia-Rates    : C-PCM and meta-GGA Hessian, CCSD/C-PCM, Gaussian charge scheme 
  Tiago L. C. Gouveia    : GS-ROHF, GS-ROCIS                             
  Yang Guo               : DLPNO-NEVPT2, F12-NEVPT2, CIM, IAO-localization        
  Andreas Hansen         : Spin unrestricted coupled pair/coupled cluster methods 
  Ingolf Harden          : AUTO-CI MPn and infrastructure                
  Benjamin Helmich-Paris : MC-RPA, TRAH-(SCF,CASSCF), AVAS, COSX integrals, SCF dyn. polar., MC-PDFT, srDFT 
  Lee Huntington         : MR-EOM, pCC                                   
  Robert Izsak           : Overlap fitted RIJCOSX, COSX-SCS-MP3, EOM     
  Riya Kayal             : Wick's Theorem for AUTO-CI, AUTO-CI UHF-CCSDT 
  Emily Kempfer          : AUTO-CI RHF CISDT and CCSDT, approximate NEVPT4
  Christian Kollmar      : KDIIS, OOCD, Brueckner-CCSD(T), CCSD density, CASPT2, CASPT2-K, improved NEVPT2 
  Axel Koslowski         : Symmetry handling                             
  Simone Kossmann        : meta-GGA functionals, TD-DFT gradient, OOMP2, (MP2 Hessian; deprecated post 5.0) 
  Lucas Lang             : DCDCAS, Hyperfine gauge corrections, ICE-SOC+SSC
  Marvin Lechner         : AUTO-CI (C++ implementation), FIC-MRCC        
  Spencer Leger          : CASSCF response                               
  Dagmar Lenk            : GEPOL surface, SMD, ORCA-2-JSON               
  Dimitrios Liakos       : Extrapolation schemes; Compound Job, Property file
  Dimitrios Manganas     : Further ROCIS development; embedding schemes. LFT, Crystal Embedding 
  Dimitrios Pantazis     : SARC Basis sets                               
  Anastasios Papadopoulos: AUTO-CI, single reference methods and gradients 
  Taras Petrenko         : pre 6.0 DFT Hessian and TD-DFT gradient,  ECA, NRVS 
  Petra Pikulova         : Analytic Raman intensities                    
  Peter Pinski           : DLPNO-MP2, DLPNO-MP2 Gradient                 
  Shashank Vittal Rao    : ES-AILFT, MagRelax                            
  Christoph Reimann      : Effective Core Potentials                     
  Marius Retegan         : Local ZFS, SOC                                
  Christoph Riplinger    : Optimizer, TS searches, QM/MM, DLPNO-CCSD(T), (RO)-DLPNO pert. Triples 
  Michael Roemelt        : Original ROCIS implementation, recursive CI coupling coefficients
  Masaaki Saitow         : Open-shell DLPNO-CCSD energy and density      
  Barbara Sandhoefer     : DKH picture change effects                    
  Yorick L. A. Schmerwitz: GMF and freeze-and-release deltaSCF, NEB S-IDPP initial path                    
  Kantharuban Sivalingam : CASSCF convergence/infrastructure, NEVPT2, NEVPT3, NEVPT4(SD), FIC-MRCI and CEPA variants
  Bernardo de Souza      : ESD, SOC TD-DFT                               
  Georgi L. Stoychev     : AutoAux, RI-MP2 NMR, DLPNO-MP2 response, X2C  
  Van Anh Tran           : RI-MP2 g-tensors                              
  Willem Van den Heuvel  : Paramagnetic NMR                              
  Zikuan Wang            : NOTCH, Electric field optimization            
  Frank Wennmohs         : Technical directorship and infrastructure     
  Hang Xu                : AUTO-CI-Response properties                   
                                                                         
[FACCTs GmbH]                                                            
  Markus Bursch, Nicolas Foglia, Miquel Garcia-Rates, Ingolf Harden, Hagen Neugebauer, Anastasios Papadopoulos, 
  Christoph Riplinger, Bernardo de Souza, Georgi L. Stoychev                                                    
                                                                 
  APM, various basis sets, CI-OPT, improved COSX, DLPNO-Multilevel,           
  DOCKER, DRACO, updates on ESD, Fragmentator, GOAT, IRC, LR-CPCM, L-BFGS, MBIS, meta-GGA TD-DFT gradient, ML-optimized integration grids, 
  MM, NACMEs, nearIR, NEB, NEB-TS, NL-DFT gradient (VV10), 2- and 3-layer-ONIOM, interface openCOSMO-RS, QMMM,   
  Crystal-QMMM, RESP, rigid body optimization, SF, symmetry and pop. for TD-DFT, various functionals, SOLVATOR                                   
                                                                         
[Other institutions]                                                     
  V. Asgeirsson          : NEB                                           
  Christoph Bannwarth    : sTDA-DFT, sTD-DFT, PBEh-3c, B97-3c, D3        
  Giovanni Bistoni       : ETS/NOCV, ADLD/ADEX, COVALED                  
  Martin Brehm           : Molecular dynamics                            
  Ronald Cardenas        : ETS/NOCV                                      
  Martina Colucci        : COVALED                                       
  Sebastian Ehlert       : rSCAN, r2SCAN, r2SCAN-3c, D4, dhf basis sets  
  Marvin Friede          : D4 for Fr, Ra, Ac-Lr                          
  Lars Goerigk           : TD-DFT with DH, B97 family of functionals     
  Stefan Grimme          : VdW corrections, initial TS optimization, DFT functionals, gCP, sTDA/sTD-DF 
  Waldemar Hujo          : DFT-NL                                        
  H. Jonsson             : NEB                                           
  Holger Kruse           : gCP                                           
  Marcel Mueller         : wB97X-3c, vDZP basis set                      
  Hagen Neugebauer       : wr2SCAN, Native XTB                           
  Gianluca Regni         : ADLD/ADEX                                     
  Tobias Risthaus        : pre 6.0 range-separated hybrid DFT and stability analysis
  Lukas Wittmann         : regularized MP2, r2SCAN double-hybrids, wr2SCAN        
                                                                         
We gratefully acknowledge several colleagues who have allowed us to      
interface, adapt or use parts of their codes:                            
  Ed Valeev, F. Pavosevic, A. Kumar             : LibInt (2-el integral package), F12 methods 
  Garnet Chan, S. Sharma, J. Yang, R. Olivares  : DMRG                   
  Ulf Ekstrom                                   : XCFun DFT Library      
  Mihaly Kallay                                 : mrcc  (arbitrary order and MRCC methods)
  Frank Weinhold                                : gennbo (NPA and NBO analysis)           
  Simon Mueller                                 : openCOSMO-RS                            
  Christopher J. Cramer and Donald G. Truhlar   : smd solvation model                     
  S Lehtola, MJT Oliveira, MAL Marques          : LibXC Library                           
  Liviu Ungur et al                             : ANISO software                          


 Your calculation uses the libint2 library for the computation of 2-el integrals
 For citations please refer to: http://libint.valeyev.net

 Your ORCA version has been built with support for libXC version: 7.0.0
 For citations please refer to: https://libxc.gitlab.io

 This ORCA versions uses:
   CBLAS   interface :  Fast vector & matrix operations
   LAPACKE interface :  Fast linear algebra routines
   SCALAPACK package :  Parallel linear algebra routines
   Shared memory     :  Shared parallel matrices
   BLAS/LAPACK       :  OpenBLAS 0.3.29  USE64BITINT DYNAMIC_ARCH NO_AFFINITY Haswell SINGLE_THREADED
        Core in use  :  Haswell
   Copyright (c) 2011-2014, The OpenBLAS Project


  ***********************************
  * Starting time: Wed Jul 16 13:40:22 2025
  * Host name:     MONSTER
  * Process ID:    119449
  * Working dir.:  /home/esp/scriptDevelopment/drFrankenstein
  ***********************************



***************************************
The coordinates will be read from file: /home/esp/scriptDevelopment/drFrankenstein/11_PCY_CHARMM/01_termini_capping/geometry_optimisation/PCY_capped.xyz
***************************************


Your calculation utilizes the semiempirical GFN2-xTB method
Please cite in your paper:
Bannwarth, C.; Ehlert S.; Grimme, S. J. Chem. Theory Comput. 2019, 15, 1652.
   

================================================================================

================================================================================
                                        WARNINGS
                       Please study these warnings very carefully!
================================================================================


WARNING: Geometry Optimization
  ===> : Switching off AutoStart
         For restart on a previous wavefunction, please use MOREAD

WARNING: Found dipole moment calculation with XTB calculation
  ===> : Switching off dipole moment calculation


================================================================================
                                       INPUT FILE
================================================================================
NAME = /home/esp/scriptDevelopment/drFrankenstein/11_PCY_CHARMM/01_termini_capping/geometry_optimisation/orca_opt.inp
|  1>  # --------------------------------- #
|  2>  #  Geometry Optimisation            #
|  3>  # --------------------------------- #
|  4> ! XTB2 ALPB(water) Opt
|  5> %geom
|  6> MaxIter 10
|  7> end
|  8> *xyzfile 0 1 /home/esp/scriptDevelopment/drFrankenstein/11_PCY_CHARMM/01_termini_capping/geometry_optimisation/PCY_capped.xyz
|  9> 
| 10> 
| 11>                          ****END OF INPUT****
================================================================================

                       *****************************
                       * Geometry Optimization Run *
                       *****************************

Geometry optimization settings:
Update method            Update   .... BFGS
Choice of coordinates    CoordSys .... (2022) Redundant Internals
Initial Hessian          InHess   .... Almloef's Model
Max. no of cycles        MaxIter  .... 10

Convergence Tolerances:
Energy Change            TolE     ....  5.0000e-06 Eh
Max. Gradient            TolMAXG  ....  3.0000e-04 Eh/bohr
RMS Gradient             TolRMSG  ....  1.0000e-04 Eh/bohr
Max. Displacement        TolMAXD  ....  4.0000e-03 bohr
RMS Displacement         TolRMSD  ....  2.0000e-03 bohr
Strict Convergence                .... False

------------------------------------------------------------------------------
                        ORCA OPTIMIZATION COORDINATE SETUP
------------------------------------------------------------------------------

The optimization will be done in redundant internal coordinates (2022)
Making redundant internal coordinates   ...  (2022 redundants) done
Evaluating the initial hessian          ...  (Almloef) done
Evaluating the coordinates              ...  done
Calculating the B-matrix                .... done
Calculating the G-matrix                .... done
The number of degrees of freedom        ....  225

    -----------------------------------------------------------------
                    Redundant Internal Coordinates


    -----------------------------------------------------------------
         Definition                    Initial Value    Approx d2E/dq
    -----------------------------------------------------------------
      1. B(N  13,H  11)                  1.0157         0.423752   
      2. B(C  14,N  13)                  1.4469         0.454035   
      3. B(C  15,C  14)                  1.4911         0.430894   
      4. B(C  16,C  14)                  1.5098         0.402397   
      5. B(C  16,H   3)                  1.0967         0.351365   
      6. B(C  16,H   7)                  1.0986         0.348889   
      7. B(O  17,C  15)                  1.2234         1.031937   
      8. B(C  18,C  16)                  1.5119         0.399220   
      9. B(C  19,C  18)                  1.4052         0.590816   
     10. B(C  19,H   5)                  1.0883         0.362321   
     11. B(C  20,C  19)                  1.3913         0.621718   
     12. B(C  20,H   2)                  1.0861         0.365330   
     13. B(C  21,C  20)                  1.3887         0.627809   
     14. B(C  22,C  21)                  1.3946         0.614355   
     15. B(C  22,H   6)                  1.0857         0.365895   
     16. B(C  23,C  22)                  1.3903         0.624030   
     17. B(C  23,C  18)                  1.4027         0.596234   
     18. B(C  23,H   9)                  1.0872         0.363790   
     19. B(O  24,C  21)                  1.3679         0.606873   
     20. B(C  25,O  24)                  1.4321         0.479440   
     21. B(C  25,H   4)                  1.0992         0.348076   
     22. B(C  25,H   0)                  1.0947         0.353975   
     23. B(C  26,C  25)                  1.5089         0.403631   
     24. B(C  27,C  26)                  1.4049         0.591558   
     25. B(C  27,H   1)                  1.0894         0.360916   
     26. B(C  28,C  27)                  1.3971         0.608796   
     27. B(C  28,H  12)                  1.0874         0.363539   
     28. B(C  29,C  28)                  1.3949         0.613559   
     29. B(C  29,H   8)                  1.0868         0.364321   
     30. B(C  30,C  29)                  1.3927         0.618705   
     31. B(C  30,H  10)                  1.0880         0.362713   
     32. B(C  31,C  30)                  1.3998         0.602753   
     33. B(C  31,C  26)                  1.4090         0.582757   
     34. B(N  32,C  31)                  1.4621         0.429356   
     35. B(O  33,N  32)                  1.2380         0.875906   
     36. B(O  34,N  32)                  1.2383         0.875140   
     37. B(N  36,C  35)                  1.4483         0.451659   
     38. B(N  36,C  15)                  1.4212         0.499087   
     39. B(H  37,N  36)                  1.0279         0.405139   
     40. B(H  38,C  35)                  1.1092         0.335528   
     41. B(H  39,C  35)                  1.1265         0.314888   
     42. B(H  40,C  35)                  1.1084         0.336519   
     43. B(C  41,N  13)                  1.3804         0.579760   
     44. B(O  42,C  41)                  1.2064         1.098423   
     45. B(C  43,C  41)                  1.5073         0.406090   
     46. B(H  44,C  43)                  1.0905         0.359425   
     47. B(H  45,C  43)                  1.0904         0.359636   
     48. B(H  46,C  43)                  1.0891         0.361336   
     49. A(H  11,N  13,C  41)          106.9266         0.353349   
     50. A(C  14,N  13,C  41)          137.1075         0.400534   
     51. A(H  11,N  13,C  14)          115.9659         0.339121   
     52. A(N  13,C  14,C  15)          118.1352         0.382713   
     53. A(N  13,C  14,C  16)          122.6365         0.378200   
     54. A(C  15,C  14,C  16)          119.2088         0.377167   
     55. A(O  17,C  15,N  36)          109.4247         0.451644   
     56. A(C  14,C  15,O  17)          121.8336         0.442694   
     57. A(C  14,C  15,N  36)          128.7417         0.389070   
     58. A(H   3,C  16,H   7)          106.7481         0.288289   
     59. A(H   3,C  16,C  14)          110.6007         0.326984   
     60. A(C  14,C  16,C  18)          116.5612         0.372230   
     61. A(H   3,C  16,C  18)          107.5378         0.326558   
     62. A(H   7,C  16,C  14)          106.7083         0.326604   
     63. A(H   7,C  16,C  18)          108.2551         0.326178   
     64. A(C  16,C  18,C  23)          119.2823         0.398591   
     65. A(C  19,C  18,C  23)          119.1865         0.427315   
     66. A(C  16,C  18,C  19)          121.5293         0.397952   
     67. A(C  18,C  19,C  20)          120.4320         0.430535   
     68. A(H   5,C  19,C  18)          120.6526         0.350408   
     69. A(H   5,C  19,C  20)          118.8452         0.353442   
     70. A(H   2,C  20,C  21)          120.2346         0.354523   
     71. A(C  19,C  20,C  21)          119.3346         0.435262   
     72. A(H   2,C  20,C  19)          120.4235         0.353938   
     73. A(C  22,C  21,O  24)          121.6799         0.428869   
     74. A(C  20,C  21,O  24)          117.2803         0.430539   
     75. A(C  20,C  21,C  22)          121.0281         0.434329   
     76. A(C  21,C  22,C  23)          119.5771         0.433858   
     77. A(H   6,C  22,C  23)          119.2919         0.354253   
     78. A(H   6,C  22,C  21)          121.1300         0.353317   
     79. A(C  18,C  23,C  22)          120.2244         0.431529   
     80. A(H   9,C  23,C  22)          118.8338         0.353907   
     81. A(H   9,C  23,C  18)          120.9357         0.351189   
     82. A(C  21,O  24,C  25)          108.8922         0.407676   
     83. A(H   0,C  25,H   4)          110.7150         0.288518   
     84. A(O  24,C  25,C  26)          111.4577         0.381989   
     85. A(H   4,C  25,C  26)          107.9079         0.326643   
     86. A(H   0,C  25,C  26)          108.9027         0.327549   
     87. A(H   4,C  25,O  24)          110.3800         0.334050   
     88. A(H   0,C  25,O  24)          107.4860         0.334984   
     89. A(C  27,C  26,C  31)          117.8094         0.425664   
     90. A(C  25,C  26,C  31)          121.2625         0.397761   
     91. A(C  25,C  26,C  27)          120.8903         0.398810   
     92. A(C  26,C  27,C  28)          120.7647         0.429011   
     93. A(H   1,C  27,C  28)          118.7682         0.351956   
     94. A(H   1,C  27,C  26)          120.4663         0.350252   
     95. A(C  27,C  28,C  29)          120.3620         0.431833   
     96. A(H  12,C  28,C  29)          119.9713         0.352853   
     97. A(H  12,C  28,C  27)          119.6664         0.352388   
     98. A(C  28,C  29,C  30)          120.0572         0.433088   
     99. A(H   8,C  29,C  30)          120.0717         0.353481   
    100. A(H   8,C  29,C  28)          119.8690         0.352981   
    101. A(C  29,C  30,C  31)          119.3564         0.431707   
    102. A(H  10,C  30,C  31)          120.8623         0.351659   
    103. A(H  10,C  30,C  29)          119.7788         0.353216   
    104. A(C  30,C  31,N  32)          117.5176         0.401913   
    105. A(C  26,C  31,N  32)          120.8923         0.399532   
    106. A(C  26,C  31,C  30)          121.5842         0.427096   
    107. A(O  33,N  32,O  34)          125.1538         0.479166   
    108. A(C  31,N  32,O  34)          117.5606         0.423832   
    109. A(C  31,N  32,O  33)          117.2848         0.423898   
    110. A(N  36,C  35,H  38)          112.1934         0.328761   
    111. A(H  39,C  35,H  40)          105.2082         0.281824   
    112. A(H  38,C  35,H  40)          110.8731         0.284615   
    113. A(N  36,C  35,H  40)          110.2639         0.328921   
    114. A(H  38,C  35,H  39)          109.3158         0.281695   
    115. A(N  36,C  35,H  39)          108.7229         0.325340   
    116. A(C  35,N  36,H  37)          118.6831         0.336297   
    117. A(C  15,N  36,H  37)          105.4360         0.341950   
    118. A(C  15,N  36,C  35)          135.8809         0.389788   
    119. A(O  42,C  41,C  43)          120.0346         0.442946   
    120. A(N  13,C  41,C  43)          132.1759         0.395284   
    121. A(N  13,C  41,O  42)          107.7895         0.469493   
    122. A(H  45,C  43,H  46)          109.5188         0.290937   
    123. A(H  44,C  43,H  46)          109.5048         0.290910   
    124. A(C  41,C  43,H  46)          109.5391         0.328992   
    125. A(H  44,C  43,H  45)          109.4329         0.290695   
    126. A(C  41,C  43,H  45)          109.3873         0.328736   
    127. A(C  41,C  43,H  44)          109.4444         0.328704   
    128. D(C  16,C  14,N  13,C  41)   -158.9835         0.016237   
    129. D(C  15,C  14,N  13,C  41)     22.6371         0.016237   
    130. D(C  16,C  14,N  13,H  11)     21.0149         0.016237   
    131. D(C  15,C  14,N  13,H  11)   -157.3645         0.016237   
    132. D(N  36,C  15,C  14,N  13)   -159.9961         0.012684   
    133. D(O  17,C  15,C  14,C  16)   -158.4352         0.012684   
    134. D(N  36,C  15,C  14,C  16)     21.5674         0.012684   
    135. D(O  17,C  15,C  14,N  13)     20.0013         0.012684   
    136. D(H   7,C  16,C  14,C  15)    -77.4761         0.012011   
    137. D(C  18,C  16,C  14,N  13)    -16.8836         0.012011   
    138. D(H   3,C  16,C  14,C  15)     38.2616         0.012011   
    139. D(H   3,C  16,C  14,N  13)   -140.1011         0.012011   
    140. D(H   7,C  16,C  14,N  13)    104.1612         0.012011   
    141. D(C  19,C  18,C  16,H   3)     73.8677         0.011830   
    142. D(C  19,C  18,C  16,H   7)   -171.1418         0.011830   
    143. D(C  19,C  18,C  16,C  14)    -50.9196         0.011830   
    144. D(C  23,C  18,C  16,H   7)      8.3547         0.011830   
    145. D(C  23,C  18,C  16,H   3)   -106.6358         0.011830   
    146. D(C  20,C  19,C  18,C  16)    173.7894         0.024025   
    147. D(H   5,C  19,C  18,C  23)    177.3747         0.024025   
    148. D(C  20,C  19,C  18,C  23)     -5.7076         0.024025   
    149. D(H   5,C  19,C  18,C  16)     -3.1284         0.024025   
    150. D(C  21,C  20,C  19,C  18)      4.3878         0.026756   
    151. D(C  21,C  20,C  19,H   5)   -178.6393         0.026756   
    152. D(H   2,C  20,C  19,C  18)   -176.5932         0.026756   
    153. D(H   2,C  20,C  19,H   5)      0.3797         0.026756   
    154. D(O  24,C  21,C  20,C  19)    177.2056         0.027316   
    155. D(O  24,C  21,C  20,H   2)     -1.8153         0.027316   
    156. D(C  22,C  21,C  20,C  19)     -1.5703         0.027316   
    157. D(C  22,C  21,C  20,H   2)    179.4088         0.027316   
    158. D(H   6,C  22,C  21,C  20)   -179.5217         0.026089   
    159. D(C  23,C  22,C  21,O  24)   -178.6109         0.026089   
    160. D(C  23,C  22,C  21,C  20)      0.1106         0.026089   
    161. D(H   6,C  22,C  21,O  24)      1.7568         0.026089   
    162. D(C  18,C  23,C  22,C  21)     -1.4597         0.026968   
    163. D(C  18,C  23,C  22,H   6)    178.1794         0.026968   
    164. D(H   9,C  23,C  22,C  21)    179.4312         0.026968   
    165. D(H   9,C  23,C  22,H   6)     -0.9297         0.026968   
    166. D(C  22,C  23,C  18,C  19)      4.2205         0.024491   
    167. D(C  22,C  23,C  18,C  16)   -175.2880         0.024491   
    168. D(H   9,C  23,C  18,C  19)   -176.6895         0.024491   
    169. D(H   9,C  23,C  18,C  16)      3.8021         0.024491   
    170. D(C  25,O  24,C  21,C  22)     61.5358         0.026940   
    171. D(C  25,O  24,C  21,C  20)   -117.2315         0.026940   
    172. D(C  26,C  25,O  24,C  21)    164.1883         0.018132   
    173. D(H   4,C  25,O  24,C  21)     44.2894         0.018132   
    174. D(H   0,C  25,O  24,C  21)    -76.5514         0.018132   
    175. D(C  31,C  26,C  25,H   4)    -81.3797         0.012081   
    176. D(C  31,C  26,C  25,H   0)     38.8569         0.012081   
    177. D(C  27,C  26,C  25,O  24)    -25.0165         0.012081   
    178. D(C  27,C  26,C  25,H   4)     96.3322         0.012081   
    179. D(C  27,C  26,C  25,H   0)   -143.4311         0.012081   
    180. D(C  28,C  27,C  26,C  31)     -2.2314         0.024088   
    181. D(C  28,C  27,C  26,C  25)    179.9798         0.024088   
    182. D(H   1,C  27,C  26,C  31)    178.1111         0.024088   
    183. D(H   1,C  27,C  26,C  25)      0.3223         0.024088   
    184. D(C  29,C  28,C  27,C  26)      0.1812         0.025592   
    185. D(C  29,C  28,C  27,H   1)    179.8444         0.025592   
    186. D(H  12,C  28,C  27,C  26)   -179.6337         0.025592   
    187. D(H  12,C  28,C  27,H   1)      0.0295         0.025592   
    188. D(C  30,C  29,C  28,H  12)   -179.0696         0.026017   
    189. D(H   8,C  29,C  28,C  27)   -179.4027         0.026017   
    190. D(H   8,C  29,C  28,H  12)      0.4116         0.026017   
    191. D(C  30,C  29,C  28,C  27)      1.1160         0.026017   
    192. D(C  31,C  30,C  29,C  28)     -0.2839         0.026482   
    193. D(C  31,C  30,C  29,H   8)   -179.7641         0.026482   
    194. D(H  10,C  30,C  29,C  28)    179.1474         0.026482   
    195. D(H  10,C  30,C  29,H   8)     -0.3328         0.026482   
    196. D(N  32,C  31,C  30,C  29)    177.2525         0.025058   
    197. D(N  32,C  31,C  30,H  10)     -2.1725         0.025058   
    198. D(C  26,C  31,C  30,C  29)     -1.8674         0.025058   
    199. D(C  26,C  31,C  30,H  10)    178.7076         0.025058   
    200. D(N  32,C  31,C  26,C  27)   -175.9977         0.023343   
    201. D(N  32,C  31,C  26,C  25)      1.7824         0.023343   
    202. D(C  30,C  31,C  26,C  27)      3.0927         0.023343   
    203. D(C  30,C  31,C  26,C  25)   -179.1271         0.023343   
    204. D(O  34,N  32,C  31,C  30)   -133.4979         0.014521   
    205. D(O  34,N  32,C  31,C  26)     45.6284         0.014521   
    206. D(O  33,N  32,C  31,C  30)     46.2159         0.014521   
    207. D(O  33,N  32,C  31,C  26)   -134.6578         0.014521   
    208. D(H  37,N  36,C  35,H  39)    -98.7148         0.017404   
    209. D(H  37,N  36,C  35,H  38)    140.2564         0.017404   
    210. D(C  15,N  36,C  35,H  40)   -163.8589         0.017404   
    211. D(C  15,N  36,C  35,H  39)     81.2820         0.017404   
    212. D(C  15,N  36,C  35,H  38)    -39.7468         0.017404   
    213. D(H  37,N  36,C  15,O  17)    179.9747         0.019690   
    214. D(H  37,N  36,C  15,C  14)     -0.0277         0.019690   
    215. D(C  35,N  36,C  15,O  17)     -0.0224         0.019690   
    216. D(C  35,N  36,C  15,C  14)    179.9752         0.019690   
    217. D(C  43,C  41,N  13,C  14)   -179.9930         0.026958   
    218. D(C  43,C  41,N  13,H  11)      0.0085         0.026958   
    219. D(O  42,C  41,N  13,C  14)     -0.0353         0.026958   
    220. D(O  42,C  41,N  13,H  11)    179.9662         0.026958   
    221. D(H  46,C  43,C  41,N  13)     -0.0203         0.012223   
    222. D(H  45,C  43,C  41,O  42)     59.9779         0.012223   
    223. D(H  45,C  43,C  41,N  13)   -120.0686         0.012223   
    224. D(H  44,C  43,C  41,O  42)    -59.9076         0.012223   
    225. D(H  44,C  43,C  41,N  13)    120.0459         0.012223   
    -----------------------------------------------------------------

Number of atoms                         .... 47
Number of degrees of freedom            .... 225


         *************************************************************
         *                GEOMETRY OPTIMIZATION CYCLE   1            *
         *************************************************************
---------------------------------
CARTESIAN COORDINATES (ANGSTROEM)
---------------------------------
  H     1.359000   -1.916000   -0.687000
  H    -1.827000   -3.675000   -0.100000
  H    -2.550000   -0.380000    0.556000
  H    -0.597000    4.155000    1.446000
  H     0.581000   -1.780000    0.936000
  H    -2.597000    2.006000    1.179000
  H     1.219000    0.215000   -1.441000
  H    -0.013000    4.460000   -0.188000
  H    -0.009000   -7.551000    0.180000
  H     1.168000    2.593000   -0.871000
  H     2.241000   -6.517000    0.264000
  H    -3.025000    3.054000   -0.983000
  H    -2.030000   -6.123000    0.025000
  N    -3.071000    4.065000   -0.897000
  C    -2.102000    4.670000   -0.009000
  C    -2.412000    6.013000    0.560000
  C    -0.818000    3.981000    0.386000
  O    -3.555000    6.447000    0.604000
  C    -0.749000    2.490000    0.145000
  C    -1.760000    1.625000    0.597000
  C    -1.740000    0.277000    0.253000
  C    -0.663000   -0.226000   -0.465000
  C     0.380000    0.605000   -0.873000
  C     0.344000    1.958000   -0.555000
  O    -0.658000   -1.568000   -0.730000
  C     0.476000   -2.163000   -0.089000
  C     0.342000   -3.664000   -0.012000
  C    -0.922000   -4.277000   -0.027000
  C    -1.043000   -5.667000    0.044000
  C     0.094000   -6.470000    0.135000
  C     1.358000   -5.887000    0.179000
  C     1.473000   -4.493000    0.125000
  N     2.814000   -3.921000    0.236000
  O     3.709000   -4.436000   -0.447000
  O     2.967000   -2.965000    1.008000
  C    -1.645000    8.291000    1.698000
  N    -1.521000    6.971000    1.115000
  H    -0.587000    6.547000    1.048000
  H    -2.382000    8.920000    1.158000
  H    -1.964000    8.183000    2.773000
  H    -0.655000    8.788000    1.737000
  C    -4.102000    4.491000   -1.710000
  O    -4.171000    5.692000   -1.619000
  C    -5.059000    3.746000   -2.605000
  H    -6.082000    3.928000   -2.274000
  H    -4.942000    4.096000   -3.631000
  H    -4.846000    2.679000   -2.558000

----------------------------
CARTESIAN COORDINATES (A.U.)
----------------------------
  NO LB    ZA    FRAG    MASS        X           Y           Z
   0 H   1.0000    0     1.008    2.568138   -3.620715   -1.298242
   1 H   1.0000    0     1.008   -3.452530   -6.944744   -0.188973
   2 H   1.0000    0     1.008   -4.818802   -0.718096    1.050688
   3 H   1.0000    0     1.008   -1.128167    7.851812    2.732544
   4 H   1.0000    0     1.008    1.097931   -3.363713    1.768784
   5 H   1.0000    0     1.008   -4.907619    3.790791    2.227987
   6 H   1.0000    0     1.008    2.303576    0.406291   -2.723095
   7 H   1.0000    0     1.008   -0.024566    8.428179   -0.355269
   8 H   1.0000    0     1.008   -0.017008  -14.269322    0.340151
   9 H   1.0000    0     1.008    2.207200    4.900060   -1.645951
  10 H   1.0000    0     1.008    4.234876  -12.315345    0.498888
  11 H   1.0000    0     1.008   -5.716422    5.771224   -1.857601
  12 H   1.0000    0     1.008   -3.836144  -11.570793    0.047243
  13 N   7.0000    0    14.007   -5.803349    7.681737   -1.695084
  14 C   6.0000    0    12.011   -3.972204    8.825021   -0.017008
  15 C   6.0000    0    12.011   -4.558019   11.362923    1.058247
  16 C   6.0000    0    12.011   -1.545796    7.523000    0.729434
  17 O   8.0000    0    15.999   -6.717976   12.183064    1.141395
  18 C   6.0000    0    12.011   -1.415405    4.705418    0.274010
  19 C   6.0000    0    12.011   -3.325918    3.070805    1.128167
  20 C   6.0000    0    12.011   -3.288123    0.523454    0.478101
  21 C   6.0000    0    12.011   -1.252888   -0.427078   -0.878723
  22 C   6.0000    0    12.011    0.718096    1.143284   -1.649731
  23 C   6.0000    0    12.011    0.650066    3.700084   -1.048798
  24 O   8.0000    0    15.999   -1.243440   -2.963091   -1.379500
  25 C   6.0000    0    12.011    0.899510   -4.087478   -0.168186
  26 C   6.0000    0    12.011    0.646286   -6.923957   -0.022677
  27 C   6.0000    0    12.011   -1.742327   -8.082359   -0.051023
  28 C   6.0000    0    12.011   -1.970984  -10.709078    0.083148
  29 C   6.0000    0    12.011    0.177634  -12.226528    0.255113
  30 C   6.0000    0    12.011    2.566248  -11.124818    0.338261
  31 C   6.0000    0    12.011    2.783567   -8.490540    0.236216
  32 N   7.0000    0    14.007    5.317689   -7.409616    0.445975
  33 O   8.0000    0    15.999    7.008994   -8.382825   -0.844708
  34 O   8.0000    0    15.999    5.606817   -5.603038    1.904844
  35 C   6.0000    0    12.011   -3.108599   15.667719    3.208755
  36 N   7.0000    0    14.007   -2.874273   13.173281    2.107045
  37 H   1.0000    0     1.008   -1.109269   12.372037    1.980433
  38 H   1.0000    0     1.008   -4.501328   16.856357    2.188303
  39 H   1.0000    0     1.008   -3.711422   15.463629    5.240211
  40 H   1.0000    0     1.008   -1.237771   16.606913    3.282454
  41 C   6.0000    0    12.011   -7.751657    8.486760   -3.231432
  42 O   8.0000    0    15.999   -7.882048   10.756321   -3.059467
  43 C   6.0000    0    12.011   -9.560125    7.078914   -4.922737
  44 H   1.0000    0     1.008  -11.493314    7.422844   -4.297237
  45 H   1.0000    0     1.008   -9.339027    7.740318   -6.861596
  46 H   1.0000    0     1.008   -9.157613    5.062576   -4.833919

      -----------------------------------------------------------      
     |                   =====================                   |     
     |                           x T B                           |     
     |                   =====================                   |     
     |                         S. Grimme                         |     
     |          Mulliken Center for Theoretical Chemistry        |     
     |                    University of Bonn                     |     
      -----------------------------------------------------------      

   * xtb version 6.7.1 (edcfbbe) compiled by 'albert@albert-system' on 2024-07-22

   xtb is free software: you can redistribute it and/or modify it under
   the terms of the GNU Lesser General Public License as published by
   the Free Software Foundation, either version 3 of the License, or
   (at your option) any later version.
   
   xtb is distributed in the hope that it will be useful,
   but WITHOUT ANY WARRANTY; without even the implied warranty of
   MERCHANTABILITY or FITNESS FOR A PARTICULAR PURPOSE.  See the
   GNU Lesser General Public License for more details.
   
   Cite this work as:
   * C. Bannwarth, E. Caldeweyher, S. Ehlert, A. Hansen, P. Pracht,
     J. Seibert, S. Spicher, S. Grimme, WIREs Comput. Mol. Sci., 2020, 11,
     e01493. DOI: 10.1002/wcms.1493
   
   for GFN2-xTB:
   * C. Bannwarth, S. Ehlert and S. Grimme., J. Chem. Theory Comput., 2019,
     15, 1652-1671. DOI: 10.1021/acs.jctc.8b01176
   for GFN1-xTB:
   * S. Grimme, C. Bannwarth, P. Shushkov, J. Chem. Theory Comput., 2017,
     13, 1989-2009. DOI: 10.1021/acs.jctc.7b00118
   for GFN0-xTB:
   * P. Pracht, E. Caldeweyher, S. Ehlert, S. Grimme, ChemRxiv, 2019, preprint.
     DOI: 10.26434/chemrxiv.8326202.v1
   for GFN-FF:
   * S. Spicher and S. Grimme, Angew. Chem. Int. Ed., 2020, 59, 15665-15673.
     DOI: 10.1002/anie.202004239
   
   for ALPB and GBSA implicit solvation:
   * S. Ehlert, M. Stahn, S. Spicher, S. Grimme, J. Chem. Theory Comput.,
     2021, 17, 4250-4261. DOI: 10.1021/acs.jctc.1c00471
   
   for ddCOSMO and CPCM-X implicit solvation:
   * M. Stahn, S. Ehlert, S. Grimme, J. Phys. Chem. A,
     2023, XX, XXXX-XXXX. DOI: 10.1021/acs.jpca.3c04382
   
   for DFT-D4:
   * E. Caldeweyher, C. Bannwarth and S. Grimme, J. Chem. Phys., 2017,
     147, 034112. DOI: 10.1063/1.4993215
   * E. Caldeweyher, S. Ehlert, A. Hansen, H. Neugebauer, S. Spicher,
     C. Bannwarth and S. Grimme, J. Chem. Phys., 2019, 150, 154122.
     DOI: 10.1063/1.5090222
   * E. Caldeweyher, J.-M. Mewes, S. Ehlert and S. Grimme, Phys. Chem. Chem. Phys.
     2020, 22, 8499-8512. DOI: 10.1039/D0CP00502A
   
   for sTDA-xTB:
   * S. Grimme and C. Bannwarth, J. Chem. Phys., 2016, 145, 054103.
     DOI: 10.1063/1.4959605
   
   in the mass-spec context:
   * V. Asgeirsson, C. Bauer and S. Grimme, Chem. Sci., 2017, 8, 4879.
     DOI: 10.1039/c7sc00601b
   * J. Koopman and S. Grimme, ACS Omega 2019, 4, 12, 15120-15133.
     DOI: 10.1021/acsomega.9b02011
   
   for metadynamics refer to:
   * S. Grimme, J. Chem. Theory Comput., 2019, 155, 2847-2862
     DOI: 10.1021/acs.jctc.9b00143
   
   for SPH calculations refer to:
   * S. Spicher and S. Grimme, J. Chem. Theory Comput., 2021, 17, 1701-1714
     DOI: 10.1021/acs.jctc.0c01306
   
   for ONIOM refer to:
   * C. Plett, A. Katbashev, S. Ehlert, S. Grimme, M. Bursch,
     Phys. Chem. Chem. Phys., 2023, 25, 17860-17868. DOI: 10.1039/D3CP02178E
   
   for DIPRO refer to:
   * J. Kohn, N. Gildemeister, S. Grimme, D. Fazzi, A. Hansen,
     J. Chem. Phys., 2023, just accepted.
   
   for PTB refer to:
   * S. Grimme, M. Mueller, A. Hansen, J. Chem. Phys., 2023, 158, 124111.
     DOI: 10.1063/5.0137838
   
   with help from (in alphabetical order)
   P. Atkinson, C. Bannwarth, F. Bohle, G. Brandenburg, E. Caldeweyher
   M. Checinski, S. Dohm, S. Ehlert, S. Ehrlich, I. Gerasimov, C. Hölzer
   A. Katbashev, J. Kohn, J. Koopman, C. Lavigne, S. Lehtola, F. März, M. Müller,
   F. Musil, H. Neugebauer, J. Pisarek, C. Plett, P. Pracht, F. Pultar,
   J. Seibert, P. Shushkov, S. Spicher, M. Stahn, M. Steiner, T. Strunk,
   J. Stückrath, T. Rose, and J. Unsleber
   
 * started run on 2025/07/16 at 13:40:22.934     
   ID    Z sym.   atoms
    1    1 H      1-13, 38-41, 45-47
    2    7 N      14, 33, 37
    3    6 C      15-17, 19-24, 26-32, 36, 42, 44
    4    8 O      18, 25, 34, 35, 43

           -------------------------------------------------
          |                Calculation Setup                |
           -------------------------------------------------

          program call               : /home/esp/bin/orca_6_1_0/otool_xtb /home/esp/scriptDevelopment/drFrankenstein/11_PCY_CHARMM/01_termini_capping/geometry_optimisation/orca_opt_XTB.xyz --grad -c 0 -u 0 -P 1 --namespace /home/esp/scriptDevelopment/drFrankenstein/11_PCY_CHARMM/01_termini_capping/geometry_optimisation/orca_opt --input /home/esp/scriptDevelopment/drFrankenstein/11_PCY_CHARMM/01_termini_capping/geometry_optimisation/orca_opt_XTB.input.tmp --alpb WATER --acc 0.200000
          calculation namespace      : /home/esp/scriptDevelopment/drFrankenstein/11_PCY_CHARMM/01_termini_capping/geometry_optimisation/orca_opt
          coordinate file            : /home/esp/scriptDevelopment/drFrankenstein/11_PCY_CHARMM/01_termini_capping/geometry_optimisation/orca_opt_XTB.xyz
          omp threads                :                     1


           -------------------------------------------------
          |                 G F N 2 - x T B                 |
           -------------------------------------------------

        Reference                      10.1021/acs.jctc.8b01176
      * Hamiltonian:
        H0-scaling (s, p, d)           1.850000    2.230000    2.230000
        zeta-weighting                 0.500000
      * Dispersion:
        s8                             2.700000
        a1                             0.520000
        a2                             5.000000
        s9                             5.000000
      * Repulsion:
        kExp                           1.500000    1.000000
        rExp                           1.000000
      * Coulomb:
        alpha                          2.000000
        third order                    shell-resolved
        anisotropic                    true
        a3                             3.000000
        a5                             4.000000
        cn-shift                       1.200000
        cn-exp                         4.000000
        max-rad                        5.000000

      * Solvation model:               ALPB
        Solvent                        WATER
        Parameter file                 internal GFN2-xTB/ALPB
        Dielectric constant                8.0200E+01
        Reference state                gsolv [1 M gas/solution]
        Free energy shift                  1.0808E-03 Eh       6.7819E-01 kcal/mol
        Temperature                        2.9815E+02 K
        Density                            1.0000E+00 kg/L
        Solvent mass                       1.8000E+01 g/mol
        Interaction kernel             P16
        Born radius scaling (c1)           1.4744E+00
        Born radii integrator          GBOBC
        Born offset                        0.0000E+00 a0       0.0000E+00 AA
        H-bond correction              true
        Ion screening                  false
        Surface tension                    1.0000E-05 Eh       1.5569E+01 dyn/cm
        Grid points                               230 per atom

          ...................................................
          :                      SETUP                      :
          :.................................................:
          :  # basis functions                 128          :
          :  # atomic orbitals                 128          :
          :  # shells                           74          :
          :  # electrons                       141          :
          :  max. iterations                   250          :
          :  Hamiltonian                  GFN2-xTB          :
          :  restarted?                      false          :
          :  GBSA solvation                   true          :
          :  PC potential                    false          :
          :  electronic temp.          300.0000000     K    :
          :  accuracy                    0.2000000          :
          :  -> integral cutoff          0.3198970E+02      :
          :  -> integral neglect         0.2000000E-08      :
          :  -> SCF convergence          0.2000000E-06 Eh   :
          :  -> wf. convergence          0.2000000E-04 e    :
          :  Broyden damping             0.4000000          :
          :  net charge                          0          :
          :  unpaired electrons                  0          :
          ...................................................

 iter      E             dE          RMSdq      gap      omega  full diag
   1    -80.5402001 -0.805402E+02  0.520E+00    1.13       0.0  T
   2    -80.7558198 -0.215620E+00  0.269E+00    0.15       1.0  T
   3    -80.7570464 -0.122658E-02  0.125E+00    0.35       1.0  T
   4    -80.6051859  0.151861E+00  0.175E+00    0.46       1.0  T
   5    -80.7657856 -0.160600E+00  0.354E-01    0.51       1.0  T
   6    -80.7680629 -0.227730E-02  0.228E-01    0.35       1.0  T
   7    -80.7683577 -0.294805E-03  0.193E-01    0.27       1.0  T
   8    -80.7700240 -0.166634E-02  0.300E-02    0.11       1.0  T
   9    -80.7698003  0.223716E-03  0.652E-02    0.10       1.0  T
  10    -80.7699804 -0.180154E-03  0.331E-02    0.13       1.0  T
  11    -80.7700338 -0.534133E-04  0.859E-03    0.11       1.7  T
  12    -80.7700323  0.154420E-05  0.102E-02    0.12       1.4  T
  13    -80.7700377 -0.544975E-05  0.141E-03    0.12      10.3  T
  14    -80.7700376  0.138788E-06  0.212E-03    0.12       6.9  T
  15    -80.7700378 -0.232826E-06  0.395E-04    0.12      36.9  T
  16    -80.7700378 -0.693052E-08  0.138E-04    0.12     105.6  T
  17    -80.7700378 -0.370235E-09  0.104E-04    0.12     139.6  T

   *** convergence criteria satisfied after 17 iterations ***

         #    Occupation            Energy/Eh            Energy/eV
      -------------------------------------------------------------
         1        2.0000           -0.7734333             -21.0462
       ...           ...                  ...                  ...
        65        2.0000           -0.4170607             -11.3488
        66        2.0000           -0.4145442             -11.2803
        67        2.0000           -0.4074965             -11.0885
        68        2.0000           -0.3950468             -10.7498
        69        2.0000           -0.3866574             -10.5215
        70        2.0000           -0.3800258             -10.3410
        71        0.9052           -0.3339794              -9.0880 (HOMO)
        72        0.0948           -0.3296916              -8.9714 (LUMO)
        73                         -0.2500921              -6.8054
        74                         -0.2473645              -6.7311
        75                         -0.2388110              -6.4984
        76                         -0.2355364              -6.4093
       ...                                ...                  ...
       128                          0.6228226              16.9479
      -------------------------------------------------------------
                  HL-Gap            0.0042877 Eh            0.1167 eV
             Fermi-level           -0.3444214 Eh           -9.3722 eV

 SCC (total)                   0 d,  0 h,  0 min,  0.061 sec
 SCC setup                      ...        0 min,  0.004 sec (  5.876%)
 Dispersion                     ...        0 min,  0.001 sec (  1.321%)
 classical contributions        ...        0 min,  0.000 sec (  0.101%)
 integral evaluation            ...        0 min,  0.006 sec (  9.459%)
 iterations                     ...        0 min,  0.035 sec ( 57.041%)
 molecular gradient             ...        0 min,  0.014 sec ( 23.668%)
 printout                       ...        0 min,  0.002 sec (  2.500%)

         :::::::::::::::::::::::::::::::::::::::::::::::::::::
         ::                     SUMMARY                     ::
         :::::::::::::::::::::::::::::::::::::::::::::::::::::
         :: total energy             -79.798972220632 Eh    ::
         :: total w/o Gsasa/hb       -79.796618106160 Eh    ::
         :: gradient norm              0.170441754933 Eh/a0 ::
         :: HOMO-LUMO gap              0.116675078767 eV    ::
         ::.................................................::
         :: SCC energy               -80.770239733509 Eh    ::
         :: -> isotropic ES            0.205793575747 Eh    ::
         :: -> anisotropic ES          0.002274700303 Eh    ::
         :: -> anisotropic XC          0.027089469467 Eh    ::
         :: -> dispersion             -0.046678576712 Eh    ::
         :: -> Gsolv                  -0.048872049686 Eh    ::
         ::    -> Gelec               -0.046517935214 Eh    ::
         ::    -> Gsasa                0.003829971437 Eh    ::
         ::    -> Ghb                 -0.007264845608 Eh    ::
         ::    -> Gshift               0.001080759698 Eh    ::
         :: repulsion energy           0.971267512877 Eh    ::
         :: add. restraining           0.000000000000 Eh    ::
         :: total charge              -0.000000000000 e     ::
         :::::::::::::::::::::::::::::::::::::::::::::::::::::


Property printout bound to 'properties.out'

           -------------------------------------------------
          | TOTAL ENERGY              -79.798972220632 Eh   |
          | GRADIENT NORM               0.170441754933 Eh/α |
          | HOMO-LUMO GAP               0.116675078767 eV   |
           -------------------------------------------------

------------------------------------------------------------------------
 * finished run on 2025/07/16 at 13:40:23.027     
------------------------------------------------------------------------
 total:
 * wall-time:     0 d,  0 h,  0 min,  0.093 sec
 *  cpu-time:     0 d,  0 h,  0 min,  0.060 sec
 * ratio c/w:     0.640 speedup
 SCF:
 * wall-time:     0 d,  0 h,  0 min,  0.062 sec
 *  cpu-time:     0 d,  0 h,  0 min,  0.046 sec
 * ratio c/w:     0.740 speedup


-------------------------   --------------------
FINAL SINGLE POINT ENERGY       -79.798972220630
-------------------------   --------------------


-------------
DIPOLE MOMENT
-------------
                                X             Y             Z
Total Dipole Moment    :     -0.55900      -1.55700       0.16200
                        -----------------------------------------
Magnitude (a.u.)       :      1.66222
Magnitude (Debye)      :      4.22503


------------------
CARTESIAN GRADIENT
------------------

   1   H   :   -0.003956506   -0.001079044   -0.004481397
   2   H   :   -0.009109314    0.001159699    0.000879123
   3   H   :   -0.005612583   -0.001999972    0.001182805
   4   H   :    0.004706417   -0.003328891    0.001428579
   5   H   :   -0.001604957   -0.001924800    0.002715065
   6   H   :   -0.005492164   -0.000081703    0.003059330
   7   H   :    0.004050953   -0.000166965   -0.003217027
   8   H   :    0.000429739    0.000955882   -0.000814111
   9   H   :   -0.001555838   -0.006026840   -0.000009920
  10   H   :    0.005858999    0.002045188   -0.001142326
  11   H   :    0.003391401   -0.006501533    0.000448924
  12   H   :   -0.016899329    0.006907384   -0.008938326
  13   H   :   -0.005778459   -0.002851338   -0.000285458
  14   N   :   -0.030980678    0.050013656   -0.020388510
  15   C   :    0.026586228   -0.011137669    0.013848156
  16   C   :   -0.001232579   -0.042263361   -0.012547669
  17   C   :    0.007091786    0.003459087    0.004923411
  18   O   :    0.044879177    0.010047580    0.001845694
  19   C   :    0.000585115    0.005759756    0.002874324
  20   C   :   -0.001484267   -0.003441811    0.009268279
  21   C   :   -0.000038499   -0.010850943   -0.005581468
  22   C   :    0.002762957   -0.009539424    0.001764459
  23   C   :    0.000312409   -0.006953311   -0.003685758
  24   C   :    0.008931606    0.002817932   -0.000448610
  25   O   :   -0.007182963    0.013491645   -0.006968853
  26   C   :    0.003233909    0.011115313    0.008503515
  27   C   :    0.008421574    0.008589337   -0.005136218
  28   C   :   -0.005514105    0.004380661    0.000525336
  29   C   :   -0.004754644   -0.004355981    0.000332966
  30   C   :   -0.000139982   -0.003610213    0.000207759
  31   C   :    0.006053213    0.000160691    0.002072793
  32   C   :   -0.007303598   -0.002862052   -0.000229871
  33   N   :    0.009498457    0.004743463    0.002479057
  34   O   :    0.010728635   -0.009296285   -0.014225039
  35   O   :   -0.001609755    0.012811037    0.014266544
  36   C   :    0.007207880    0.004303433   -0.014185191
  37   N   :   -0.044840789    0.064088970    0.026529596
  38   H   :    0.001598299   -0.017957904   -0.007970479
  39   H   :   -0.008057394    0.010361729   -0.005298037
  40   H   :    0.000423958   -0.002980887    0.016895309
  41   H   :    0.011662038    0.008326844    0.007692279
  42   C   :   -0.015753986   -0.035547952   -0.023173523
  43   O   :    0.031093798   -0.059773968    0.030901249
  44   C   :   -0.017914199    0.021914519   -0.013319212
  45   H   :   -0.004753547   -0.002384435    0.000023723
  46   H   :   -0.000574471   -0.001754113   -0.005067005
  47   H   :    0.002636057    0.001217587    0.002445727

Difference to translation invariance:
           :   -0.0000000000   -0.0000000000   -0.0000000000

Difference to rotation invariance:
           :    0.0000479787    0.0001752857   -0.0000510542

Norm of the Cartesian gradient     ...    0.1704417549
RMS gradient                       ...    0.0143537851
MAX gradient                       ...    0.0640889703
------------------------------------------------------------------------------
                         ORCA GEOMETRY RELAXATION STEP
------------------------------------------------------------------------------

Reading the OPT-File                    .... done
Getting information on internals        .... done
Copying old internal coords+grads       .... done
Making the new internal coordinates     .... (2022 redundants) done
Validating the new internal coordinates .... (2022 redundants) done
Calculating the B-matrix                .... done
Calculating the G,G- and P matrices     .... done
Transforming gradient to internals      .... done
Projecting the internal gradient        .... done
Number of atoms                         ....  47
Number of internal coordinates          .... 225
Current Energy                          ....   -79.798972221 Eh
Current gradient norm                   ....     0.170441755 Eh/bohr
Maximum allowed component of the step   ....  0.300
Current trust radius                    ....  0.300
Evaluating the initial hessian          ....  (Almloef) done
Projecting the Hessian                  .... done
Forming the augmented Hessian           .... done
Diagonalizing the augmented Hessian     .... done
Last element of RFO vector              ....  0.914053968
Lowest eigenvalues of augmented Hessian:
 -0.084132090  0.011839195  0.012015393  0.012085084  0.012222829
Length of the computed step             ....  0.443729361
Warning: the length of the step is outside the trust region - taking restricted step instead
The input lambda is                     ....     0.010830
   iter:   5  x=   -0.011473  g=  138.411181 f(x)=     1.370195
   iter:  10  x=   -0.250809  g=    0.412445 f(x)=     0.021009
   iter:  15  x=   -0.261191  g=    0.285573 f(x)=     0.000000
The output lambda is                    ....    -0.261191 (15 iterations)
The final length of the internal step   ....  0.300000000
Converting the step to Cartesian space:
 Initial RMS(Int)=    0.0200000000
Transforming coordinates:
 Iter   0:  RMS(Cart)=    0.1519250238 RMS(Int)=    0.7241835948
 Iter   5:  RMS(Cart)=    0.0000042540 RMS(Int)=    0.0000017942
done
Storing new coordinates                 .... done

                                .--------------------.
          ----------------------|Geometry convergence|-------------------------
          Item                value                   Tolerance       Converged
          ---------------------------------------------------------------------
          RMS gradient        0.0140131112            0.0001000000      NO
          MAX gradient        0.0894430872            0.0003000000      NO
          RMS step            0.0200000000            0.0020000000      NO
          MAX step            0.1264508497            0.0040000000      NO
          -------------------------------------------------------------------------
          ........................................................
          Max(Bonds)      0.0494      Max(Angles)    7.25
          Max(Dihed)        1.79      Max(Improp)    0.00
          ---------------------------------------------------------------------

The optimization has not yet converged - more geometry cycles are needed


    ---------------------------------------------------------------------------
                         Redundant Internal Coordinates
                            (Angstroem and degrees)

        Definition                    Value    dE/dq     Step     New-Value
    ----------------------------------------------------------------------------
     1. B(N  13,H  11)                1.0157 -0.006884  0.0053    1.0210   
     2. B(C  14,N  13)                1.4469  0.066733 -0.0494    1.3975   
     3. B(C  15,C  14)                1.4911  0.033082 -0.0253    1.4658   
     4. B(C  16,C  14)                1.5098  0.017034 -0.0136    1.4962   
     5. B(C  16,H   3)                1.0967  0.001801 -0.0016    1.0951   
     6. B(C  16,H   7)                1.0986  0.001157 -0.0010    1.0976   
     7. B(O  17,C  15)                1.2234 -0.038298  0.0157    1.2391   
     8. B(C  18,C  16)                1.5119  0.003703 -0.0030    1.5090   
     9. B(C  19,C  18)                1.4052  0.015549 -0.0098    1.3955   
    10. B(C  19,H   5)                1.0883  0.005831 -0.0049    1.0834   
    11. B(C  20,C  19)                1.3913  0.006928 -0.0041    1.3872   
    12. B(C  20,H   2)                1.0861  0.005726 -0.0048    1.0812   
    13. B(C  21,C  20)                1.3887 -0.000371  0.0003    1.3890   
    14. B(C  22,C  21)                1.3946  0.005206 -0.0030    1.3915   
    15. B(C  22,H   6)                1.0857  0.004874 -0.0041    1.0815   
    16. B(C  23,C  22)                1.3903  0.006220 -0.0037    1.3866   
    17. B(C  23,C  18)                1.4027  0.012455 -0.0078    1.3949   
    18. B(C  23,H   9)                1.0872  0.005967 -0.0051    1.0822   
    19. B(O  24,C  21)                1.3679 -0.017843  0.0109    1.3788   
    20. B(C  25,O  24)                1.4321  0.001762 -0.0013    1.4308   
    21. B(C  25,H   4)                1.0992  0.001708 -0.0015    1.0978   
    22. B(C  25,H   0)                1.0947 -0.000987  0.0008    1.0955   
    23. B(C  26,C  25)                1.5089  0.003501 -0.0028    1.5061   
    24. B(C  27,C  26)                1.4049  0.017497 -0.0109    1.3940   
    25. B(C  27,H   1)                1.0894  0.008149 -0.0069    1.0825   
    26. B(C  28,C  27)                1.3971  0.011544 -0.0070    1.3900   
    27. B(C  28,H  12)                1.0874  0.006446 -0.0055    1.0820   
    28. B(C  29,C  28)                1.3949  0.009397 -0.0057    1.3893   
    29. B(C  29,H   8)                1.0868  0.006142 -0.0052    1.0816   
    30. B(C  30,C  29)                1.3927  0.011567 -0.0069    1.3858   
    31. B(C  30,H  10)                1.0880  0.006552 -0.0056    1.0825   
    32. B(C  31,C  30)                1.3998  0.011886 -0.0073    1.3925   
    33. B(C  31,C  26)                1.4090  0.012656 -0.0080    1.4010   
    34. B(N  32,C  31)                1.4621  0.020497 -0.0157    1.4464   
    35. B(O  33,N  32)                1.2380  0.019470 -0.0091    1.2290   
    36. B(O  34,N  32)                1.2383  0.018587 -0.0087    1.2296   
    37. B(N  36,C  35)                1.4483  0.019331 -0.0144    1.4340   
    38. B(N  36,C  15)                1.4212  0.033759 -0.0235    1.3977   
    39. B(H  37,N  36)                1.0279  0.009379 -0.0074    1.0205   
    40. B(H  38,C  35)                1.1092  0.013809 -0.0122    1.0970   
    41. B(H  39,C  35)                1.1265  0.016289 -0.0150    1.1116   
    42. B(H  40,C  35)                1.1084  0.014419 -0.0128    1.0957   
    43. B(C  41,N  13)                1.3804 -0.014799  0.0093    1.3897   
    44. B(O  42,C  41)                1.2064 -0.058953  0.0229    1.2294   
    45. B(C  43,C  41)                1.5073  0.013147 -0.0104    1.4969   
    46. B(H  44,C  43)                1.0905  0.004067 -0.0035    1.0870   
    47. B(H  45,C  43)                1.0904  0.004145 -0.0035    1.0868   
    48. B(H  46,C  43)                1.0891 -0.000572  0.0005    1.0896   
    49. A(H  11,N  13,C  41)          106.93 -0.021563    2.01    108.93   
    50. A(C  14,N  13,C  41)          137.11  0.006984   -0.61    136.50   
    51. A(H  11,N  13,C  14)          115.97  0.014579   -1.40    114.57   
    52. A(N  13,C  14,C  15)          118.14 -0.019414    1.73    119.87   
    53. A(N  13,C  14,C  16)          122.64  0.020690   -1.85    120.78   
    54. A(C  15,C  14,C  16)          119.21 -0.001240    0.11    119.32   
    55. A(O  17,C  15,N  36)          109.42 -0.058451    4.85    114.27   
    56. A(C  14,C  15,O  17)          121.83 -0.002328    0.34    122.18   
    57. A(C  14,C  15,N  36)          128.74  0.060778   -5.19    123.55   
    58. A(H   3,C  16,H   7)          106.75 -0.000062    0.08    106.83   
    59. A(H   3,C  16,C  14)          110.60  0.003838   -0.48    110.12   
    60. A(C  14,C  16,C  18)          116.56  0.005129   -0.50    116.06   
    61. A(H   3,C  16,C  18)          107.54 -0.004920    0.47    108.01   
    62. A(H   7,C  16,C  14)          106.71 -0.002947    0.29    107.00   
    63. A(H   7,C  16,C  18)          108.26 -0.001435    0.20    108.45   
    64. A(C  16,C  18,C  23)          119.28 -0.004447    0.40    119.68   
    65. A(C  19,C  18,C  23)          119.19  0.000923   -0.11    119.08   
    66. A(C  16,C  18,C  19)          121.53  0.003518   -0.29    121.24   
    67. A(C  18,C  19,C  20)          120.43 -0.001583    0.12    120.56   
    68. A(H   5,C  19,C  18)          120.65  0.003189   -0.28    120.37   
    69. A(H   5,C  19,C  20)          118.85 -0.001705    0.18    119.02   
    70. A(H   2,C  20,C  21)          120.23  0.003120   -0.29    119.95   
    71. A(C  19,C  20,C  21)          119.33 -0.003030    0.28    119.61   
    72. A(H   2,C  20,C  19)          120.42 -0.000098    0.01    120.44   
    73. A(C  22,C  21,O  24)          121.68 -0.003359    0.27    121.94   
    74. A(C  20,C  21,O  24)          117.28 -0.004933    0.39    117.68   
    75. A(C  20,C  21,C  22)          121.03  0.008257   -0.65    120.38   
    76. A(C  21,C  22,C  23)          119.58 -0.001246    0.12    119.70   
    77. A(H   6,C  22,C  23)          119.29 -0.000996    0.09    119.38   
    78. A(H   6,C  22,C  21)          121.13  0.002243   -0.21    120.92   
    79. A(C  18,C  23,C  22)          120.22 -0.003493    0.28    120.51   
    80. A(H   9,C  23,C  22)          118.83  0.000192    0.01    118.84   
    81. A(H   9,C  23,C  18)          120.94  0.003293   -0.28    120.65   
    82. A(C  21,O  24,C  25)          108.89 -0.026792    2.30    111.19   
    83. A(H   0,C  25,H   4)          110.71  0.004048   -0.45    110.26   
    84. A(O  24,C  25,C  26)          111.46  0.008826   -0.78    110.68   
    85. A(H   4,C  25,C  26)          107.91 -0.003908    0.32    108.23   
    86. A(H   0,C  25,C  26)          108.90 -0.002442    0.28    109.19   
    87. A(H   4,C  25,O  24)          110.38  0.000510   -0.13    110.25   
    88. A(H   0,C  25,O  24)          107.49 -0.006875    0.74    108.23   
    89. A(C  27,C  26,C  31)          117.81  0.000205   -0.03    117.78   
    90. A(C  25,C  26,C  31)          121.26 -0.001731    0.16    121.42   
    91. A(C  25,C  26,C  27)          120.89  0.001517   -0.13    120.76   
    92. A(C  26,C  27,C  28)          120.76 -0.001241    0.10    120.86   
    93. A(H   1,C  27,C  28)          118.77 -0.003613    0.35    119.11   
    94. A(H   1,C  27,C  26)          120.47  0.004856   -0.45    120.02   
    95. A(C  27,C  28,C  29)          120.36 -0.000087    0.01    120.37   
    96. A(H  12,C  28,C  29)          119.97 -0.000113    0.01    119.98   
    97. A(H  12,C  28,C  27)          119.67  0.000200   -0.02    119.65   
    98. A(C  28,C  29,C  30)          120.06  0.001958   -0.16    119.90   
    99. A(H   8,C  29,C  30)          120.07  0.000037   -0.02    120.06   
   100. A(H   8,C  29,C  28)          119.87 -0.001997    0.17    120.04   
   101. A(C  29,C  30,C  31)          119.36  0.000172   -0.01    119.35   
   102. A(H  10,C  30,C  31)          120.86  0.003332   -0.32    120.55   
   103. A(H  10,C  30,C  29)          119.78 -0.003505    0.32    120.10   
   104. A(C  30,C  31,N  32)          117.52  0.001093   -0.09    117.43   
   105. A(C  26,C  31,N  32)          120.89 -0.000058    0.01    120.90   
   106. A(C  26,C  31,C  30)          121.58 -0.001038    0.09    121.67   
   107. A(O  33,N  32,O  34)          125.15  0.006840   -0.54    124.61   
   108. A(C  31,N  32,O  34)          117.56 -0.003670    0.29    117.85   
   109. A(C  31,N  32,O  33)          117.28 -0.003168    0.25    117.54   
   110. A(N  36,C  35,H  38)          112.19  0.006033   -0.67    111.53   
   111. A(H  39,C  35,H  40)          105.21 -0.007383    0.93    106.14   
   112. A(H  38,C  35,H  40)          110.87 -0.001516    0.04    110.91   
   113. A(N  36,C  35,H  40)          110.26  0.006253   -0.61    109.65   
   114. A(H  38,C  35,H  39)          109.32  0.001120   -0.16    109.16   
   115. A(N  36,C  35,H  39)          108.72 -0.005526    0.59    109.31   
   116. A(C  35,N  36,H  37)          118.68  0.000070   -0.09    118.60   
   117. A(C  15,N  36,H  37)          105.44 -0.033608    3.11    108.55   
   118. A(C  15,N  36,C  35)          135.88  0.033538   -3.03    132.86   
   119. A(O  42,C  41,C  43)          120.03  0.010777   -0.64    119.40   
   120. A(N  13,C  41,C  43)          132.18  0.078664   -6.61    125.57   
   121. A(N  13,C  41,O  42)          107.79 -0.089443    7.25    115.03   
   122. A(H  45,C  43,H  46)          109.52  0.000308    0.01    109.53   
   123. A(H  44,C  43,H  46)          109.50 -0.000982    0.18    109.68   
   124. A(C  41,C  43,H  46)          109.54 -0.008060    0.84    110.38   
   125. A(H  44,C  43,H  45)          109.43 -0.001679    0.05    109.48   
   126. A(C  41,C  43,H  45)          109.39  0.005574   -0.58    108.81   
   127. A(C  41,C  43,H  44)          109.44  0.004855   -0.50    108.95   
   128. D(C  16,C  14,N  13,C  41)   -158.98 -0.006193    1.27   -157.71   
   129. D(C  15,C  14,N  13,C  41)     22.64 -0.007675    1.58     24.22   
   130. D(C  16,C  14,N  13,H  11)     21.01 -0.002897    0.60     21.62   
   131. D(C  15,C  14,N  13,H  11)   -157.36 -0.004379    0.91   -156.45   
   132. D(N  36,C  15,C  14,N  13)   -160.00  0.000137   -0.00   -160.00   
   133. D(O  17,C  15,C  14,C  16)   -158.44 -0.006872    1.41   -157.03   
   134. D(N  36,C  15,C  14,C  16)     21.57 -0.001673    0.33     21.90   
   135. D(O  17,C  15,C  14,N  13)     20.00 -0.005062    1.07     21.08   
   136. D(H   7,C  16,C  14,C  15)    -77.48  0.000972   -0.25    -77.73   
   137. D(C  18,C  16,C  14,N  13)    -16.88  0.000520   -0.11    -17.00   
   138. D(H   3,C  16,C  14,C  15)     38.26  0.001216   -0.24     38.02   
   139. D(H   3,C  16,C  14,N  13)   -140.10 -0.000004    0.05   -140.05   
   140. D(H   7,C  16,C  14,N  13)    104.16 -0.000248    0.04    104.20   
   141. D(C  19,C  18,C  16,H   3)     73.87  0.003277   -0.50     73.37   
   142. D(C  19,C  18,C  16,H   7)   -171.14 -0.000032   -0.06   -171.20   
   143. D(C  19,C  18,C  16,C  14)    -50.92 -0.001532    0.13    -50.79   
   144. D(C  23,C  18,C  16,H   7)      8.35 -0.000833    0.08      8.43   
   145. D(C  23,C  18,C  16,H   3)   -106.64  0.002476   -0.36   -106.99   
   146. D(C  20,C  19,C  18,C  16)    173.79 -0.003117    0.60    174.39   
   147. D(H   5,C  19,C  18,C  23)    177.37 -0.000069    0.02    177.40   
   148. D(C  20,C  19,C  18,C  23)     -5.71 -0.002291    0.46     -5.24   
   149. D(H   5,C  19,C  18,C  16)     -3.13 -0.000895    0.16     -2.96   
   150. D(C  21,C  20,C  19,C  18)      4.39  0.001601   -0.34      4.05   
   151. D(C  21,C  20,C  19,H   5)   -178.64 -0.000431    0.08   -178.56   
   152. D(H   2,C  20,C  19,C  18)   -176.59  0.001148   -0.24   -176.83   
   153. D(H   2,C  20,C  19,H   5)      0.38 -0.000885    0.18      0.56   
   154. D(O  24,C  21,C  20,C  19)    177.21 -0.002402    0.48    177.68   
   155. D(O  24,C  21,C  20,H   2)     -1.82 -0.001917    0.38     -1.44   
   156. D(C  22,C  21,C  20,C  19)     -1.57 -0.000584    0.11     -1.46   
   157. D(C  22,C  21,C  20,H   2)    179.41 -0.000100    0.01    179.42   
   158. D(H   6,C  22,C  21,C  20)   -179.52 -0.000277    0.06   -179.46   
   159. D(C  23,C  22,C  21,O  24)   -178.61  0.001833   -0.37   -178.98   
   160. D(C  23,C  22,C  21,C  20)      0.11 -0.000076    0.02      0.13   
   161. D(H   6,C  22,C  21,O  24)      1.76  0.001633   -0.32      1.43   
   162. D(C  18,C  23,C  22,C  21)     -1.46 -0.000426    0.09     -1.37   
   163. D(C  18,C  23,C  22,H   6)    178.18 -0.000217    0.05    178.23   
   164. D(H   9,C  23,C  22,C  21)    179.43  0.000081   -0.01    179.42   
   165. D(H   9,C  23,C  22,H   6)     -0.93  0.000290   -0.06     -0.99   
   166. D(C  22,C  23,C  18,C  19)      4.22  0.001572   -0.33      3.89   
   167. D(C  22,C  23,C  18,C  16)   -175.29  0.002340   -0.46   -175.75   
   168. D(H   9,C  23,C  18,C  19)   -176.69  0.001025   -0.22   -176.91   
   169. D(H   9,C  23,C  18,C  16)      3.80  0.001793   -0.35      3.45   
   170. D(C  25,O  24,C  21,C  22)     61.54  0.000035    0.00     61.54   
   171. D(C  25,O  24,C  21,C  20)   -117.23  0.001714   -0.35   -117.58   
   172. D(C  26,C  25,O  24,C  21)    164.19  0.000973   -0.15    164.04   
   173. D(H   4,C  25,O  24,C  21)     44.29 -0.000227    0.04     44.33   
   174. D(H   0,C  25,O  24,C  21)    -76.55 -0.001191    0.20    -76.35   
   175. D(C  31,C  26,C  25,H   4)    -81.38 -0.000023    0.02    -81.36   
   176. D(C  31,C  26,C  25,H   0)     38.86  0.001159   -0.17     38.68   
   177. D(C  27,C  26,C  25,O  24)    -25.02 -0.003825    0.55    -24.47   
   178. D(C  27,C  26,C  25,H   4)     96.33 -0.000308    0.12     96.45   
   179. D(C  27,C  26,C  25,H   0)   -143.43  0.000874   -0.07   -143.51   
   180. D(C  28,C  27,C  26,C  31)     -2.23 -0.000618    0.14     -2.09   
   181. D(C  28,C  27,C  26,C  25)    179.98 -0.000298    0.04    180.02   
   182. D(H   1,C  27,C  26,C  31)    178.11 -0.000900    0.20    178.31   
   183. D(H   1,C  27,C  26,C  25)      0.32 -0.000580    0.10      0.42   
   184. D(C  29,C  28,C  27,C  26)      0.18  0.000099   -0.03      0.15   
   185. D(C  29,C  28,C  27,H   1)    179.84  0.000405   -0.08    179.76   
   186. D(H  12,C  28,C  27,C  26)   -179.63  0.000178   -0.04   -179.67   
   187. D(H  12,C  28,C  27,H   1)      0.03  0.000484   -0.10     -0.07   
   188. D(C  30,C  29,C  28,H  12)   -179.07  0.000263   -0.06   -179.13   
   189. D(H   8,C  29,C  28,C  27)   -179.40  0.000147   -0.03   -179.43   
   190. D(H   8,C  29,C  28,H  12)      0.41  0.000069   -0.01      0.40   
   191. D(C  30,C  29,C  28,C  27)      1.12  0.000342   -0.07      1.04   
   192. D(C  31,C  30,C  29,C  28)     -0.28 -0.000243    0.05     -0.23   
   193. D(C  31,C  30,C  29,H   8)   -179.76 -0.000038    0.01   -179.76   
   194. D(H  10,C  30,C  29,C  28)    179.15 -0.000332    0.07    179.22   
   195. D(H  10,C  30,C  29,H   8)     -0.33 -0.000127    0.03     -0.30   
   196. D(N  32,C  31,C  30,C  29)    177.25 -0.000540    0.11    177.37   
   197. D(N  32,C  31,C  30,H  10)     -2.17 -0.000410    0.09     -2.09   
   198. D(C  26,C  31,C  30,C  29)     -1.87 -0.000304    0.07     -1.80   
   199. D(C  26,C  31,C  30,H  10)    178.71 -0.000174    0.04    178.75   
   200. D(N  32,C  31,C  26,C  27)   -176.00  0.000935   -0.21   -176.20   
   201. D(N  32,C  31,C  26,C  25)      1.78  0.000689   -0.11      1.67   
   202. D(C  30,C  31,C  26,C  27)      3.09  0.000701   -0.16      2.93   
   203. D(C  30,C  31,C  26,C  25)   -179.13  0.000456   -0.07   -179.19   
   204. D(O  34,N  32,C  31,C  30)   -133.50  0.002372   -0.49   -133.99   
   205. D(O  34,N  32,C  31,C  26)     45.63  0.002129   -0.44     45.18   
   206. D(O  33,N  32,C  31,C  30)     46.22  0.002747   -0.57     45.65   
   207. D(O  33,N  32,C  31,C  26)   -134.66  0.002504   -0.52   -135.18   
   208. D(H  37,N  36,C  35,H  39)    -98.71  0.001029   -0.12    -98.83   
   209. D(H  37,N  36,C  35,H  38)    140.26 -0.000487    0.11    140.36   
   210. D(C  15,N  36,C  35,H  40)   -163.86 -0.006037    0.81   -163.05   
   211. D(C  15,N  36,C  35,H  39)     81.28  0.002512   -0.30     80.98   
   212. D(C  15,N  36,C  35,H  38)    -39.75  0.000996   -0.08    -39.83   
   213. D(H  37,N  36,C  15,O  17)    179.97  0.002662   -0.50    179.48   
   214. D(H  37,N  36,C  15,C  14)     -0.03 -0.002021    0.47      0.44   
   215. D(C  35,N  36,C  15,O  17)     -0.02  0.001312   -0.33     -0.35   
   216. D(C  35,N  36,C  15,C  14)    179.98 -0.003371    0.64    180.62   
   217. D(C  43,C  41,N  13,C  14)   -179.99 -0.001860    0.36   -179.64   
   218. D(C  43,C  41,N  13,H  11)      0.01 -0.004958    0.99      0.99   
   219. D(O  42,C  41,N  13,C  14)     -0.04 -0.005842    1.16      1.13   
   220. D(O  42,C  41,N  13,H  11)    179.97 -0.008940    1.79    181.76   
   221. D(H  46,C  43,C  41,N  13)     -0.02 -0.000932    0.25      0.23   
   222. D(H  45,C  43,C  41,O  42)     59.98  0.004611   -0.81     59.17   
   223. D(H  45,C  43,C  41,N  13)   -120.07  0.000203    0.08   -119.99   
   224. D(H  44,C  43,C  41,O  42)    -59.91  0.000312   -0.21    -60.12   
   225. D(H  44,C  43,C  41,N  13)    120.05 -0.004096    0.67    120.72   
    ----------------------------------------------------------------------------

Geometry step timings:
Preparation and reading OPT file:      0.000 s ( 0.167 %)
Internal coordinates            :      0.000 s ( 0.223 %)
B/P matrices and projection     :      0.003 s (30.076 %)
Hessian update/contruction      :      0.001 s (12.396 %)
Making the step                 :      0.005 s (48.971 %)
Converting the step to Cartesian:      0.000 s ( 3.569 %)
Storing new data                :      0.000 s ( 0.269 %)
Checking convergence            :      0.000 s ( 0.260 %)
Final printing                  :      0.000 s ( 4.042 %)
Total time                      :      0.011 s

Time for energy+gradient        :      0.099 s
Time for complete geometry iter :      0.110 s

         *************************************************************
         *                GEOMETRY OPTIMIZATION CYCLE   2            *
         *************************************************************
---------------------------------
CARTESIAN COORDINATES (ANGSTROEM)
---------------------------------
  H     1.406157   -1.896187   -0.665946
  H    -1.813531   -3.551623   -0.103618
  H    -2.509079   -0.307951    0.598907
  H    -0.638154    4.244260    1.451513
  H     0.639940   -1.766234    0.957064
  H    -2.585300    2.079247    1.190472
  H     1.231094    0.314442   -1.408386
  H    -0.055150    4.550086   -0.181490
  H    -0.147948   -7.482475    0.098969
  H     1.141184    2.689910   -0.861268
  H     2.128455   -6.527254    0.189941
  H    -2.925511    3.046618   -0.895565
  H    -2.109749   -5.984191   -0.022004
  N    -3.035898    4.060720   -0.852257
  C    -2.139570    4.706772    0.003489
  C    -2.480358    6.018378    0.562297
  C    -0.849516    4.056943    0.393428
  O    -3.649821    6.421698    0.633177
  C    -0.758103    2.569625    0.155759
  C    -1.750628    1.701429    0.612301
  C    -1.712506    0.353400    0.287199
  C    -0.633222   -0.149885   -0.427811
  C     0.390937    0.695372   -0.843798
  C     0.332559    2.046858   -0.539235
  O    -0.612218   -1.503930   -0.687063
  C     0.516739   -2.130954   -0.070983
  C     0.334176   -3.625197   -0.022066
  C    -0.940566   -4.188870   -0.044025
  C    -1.111490   -5.567598    0.001471
  C    -0.009140   -6.410097    0.073126
  C     1.267888   -5.874204    0.121364
  C     1.429355   -4.491392    0.092285
  N     2.776015   -3.975423    0.203565
  O     3.647127   -4.508945   -0.479738
  O     2.970840   -3.040524    0.978146
  C    -1.639406    8.209424    1.670525
  N    -1.533516    6.908396    1.076880
  H    -0.608341    6.488120    0.983159
  H    -2.384344    8.827764    1.154661
  H    -1.929361    8.103712    2.738380
  H    -0.657934    8.696454    1.668235
  C    -4.069426    4.438395   -1.701011
  O    -4.277040    5.648594   -1.761406
  C    -4.902018    3.507995   -2.526676
  H    -5.945004    3.620762   -2.241848
  H    -4.782583    3.767903   -3.575178
  H    -4.588034    2.476657   -2.368937

----------------------------
CARTESIAN COORDINATES (A.U.)
----------------------------
  NO LB    ZA    FRAG    MASS        X           Y           Z
   0 H   1.0000    0     1.008    2.657251   -3.583274   -1.258456
   1 H   1.0000    0     1.008   -3.427078   -6.711596   -0.195809
   2 H   1.0000    0     1.008   -4.741473   -0.581943    1.131770
   3 H   1.0000    0     1.008   -1.205937    8.020490    2.742963
   4 H   1.0000    0     1.008    1.209311   -3.337699    1.808590
   5 H   1.0000    0     1.008   -4.885508    3.929207    2.249666
   6 H   1.0000    0     1.008    2.326431    0.594210   -2.661464
   7 H   1.0000    0     1.008   -0.104218    8.598416   -0.342967
   8 H   1.0000    0     1.008   -0.279581  -14.139828    0.187025
   9 H   1.0000    0     1.008    2.156525    5.083194   -1.627561
  10 H   1.0000    0     1.008    4.022198  -12.334722    0.358936
  11 H   1.0000    0     1.008   -5.528414    5.757273   -1.692373
  12 H   1.0000    0     1.008   -3.986847  -11.308483   -0.041582
  13 N   7.0000    0    14.007   -5.737017    7.673649   -1.610532
[...]
    31. B(C  30,H  10)                1.0789 -0.000011  0.0000    1.0789   
    32. B(C  31,C  30)                1.3998 -0.000090  0.0001    1.3999   
    33. B(C  31,C  26)                1.4060 -0.001376  0.0013    1.4073   
    34. B(N  32,C  31)                1.4109 -0.000753 -0.0005    1.4105   
    35. B(O  33,N  32)                1.2352  0.000407 -0.0002    1.2350   
    36. B(O  34,N  32)                1.2361  0.000443 -0.0001    1.2361   
    37. B(N  36,C  35)                1.4443  0.000026 -0.0006    1.4436   
    38. B(N  36,C  15)                1.3514  0.000012 -0.0006    1.3509   
    39. B(H  37,N  36)                1.0063 -0.000021  0.0002    1.0065   
    40. B(H  38,C  35)                1.0899 -0.000073 -0.0004    1.0895   
    41. B(H  39,C  35)                1.0923 -0.000069 -0.0002    1.0921   
    42. B(H  40,C  35)                1.0858 -0.000168  0.0004    1.0862   
    43. B(C  41,N  13)                1.3829  0.000864  0.0001    1.3830   
    44. B(O  42,C  41)                1.2210  0.001166  0.0008    1.2218   
    45. B(C  43,C  41)                1.4985 -0.000954  0.0002    1.4987   
    46. B(H  44,C  43)                1.0879 -0.000038  0.0000    1.0879   
    47. B(H  45,C  43)                1.0877  0.000029 -0.0000    1.0877   
    48. B(H  46,C  43)                1.0843  0.000107 -0.0001    1.0842   
    49. A(H  11,N  13,C  41)          117.82  0.000555   -0.14    117.69   
    50. A(C  14,N  13,C  41)          125.77 -0.000447    0.11    125.88   
    51. A(H  11,N  13,C  14)          116.06 -0.000129    0.02    116.08   
    52. A(N  13,C  14,C  15)          118.89 -0.000157    0.17    119.06   
    53. A(N  13,C  14,C  16)          118.34  0.000362   -0.20    118.14   
    54. A(C  15,C  14,C  16)          122.27 -0.000210    0.00    122.27   
    55. A(O  17,C  15,N  36)          122.22 -0.000875    0.29    122.52   
    56. A(C  14,C  15,O  17)          121.80  0.000699   -0.02    121.78   
    57. A(C  14,C  15,N  36)          115.92  0.000200   -0.19    115.73   
    58. A(H   3,C  16,H   7)          107.87 -0.000042    0.07    107.94   
    59. A(H   3,C  16,C  14)          109.35  0.000024    0.08    109.42   
    60. A(C  14,C  16,C  18)          112.81  0.000225   -0.25    112.56   
    61. A(H   3,C  16,C  18)          109.23 -0.000074    0.10    109.33   
    62. A(H   7,C  16,C  14)          108.79 -0.000168    0.06    108.85   
    63. A(H   7,C  16,C  18)          108.68  0.000024   -0.04    108.64   
    64. A(C  16,C  18,C  23)          121.58 -0.000141    0.07    121.65   
    65. A(C  19,C  18,C  23)          118.63  0.000116   -0.03    118.61   
    66. A(C  16,C  18,C  19)          119.79  0.000025   -0.05    119.74   
    67. A(C  18,C  19,C  20)          120.76  0.000094   -0.03    120.73   
    68. A(H   5,C  19,C  18)          119.50 -0.000095    0.02    119.52   
    69. A(H   5,C  19,C  20)          119.74  0.000000    0.03    119.77   
    70. A(H   2,C  20,C  21)          118.71  0.000262   -0.13    118.58   
    71. A(C  19,C  20,C  21)          120.30 -0.000087    0.08    120.38   
    72. A(H   2,C  20,C  19)          120.99 -0.000175    0.06    121.05   
    73. A(C  22,C  21,O  24)          125.02  0.000382    0.29    125.31   
    74. A(C  20,C  21,O  24)          115.67 -0.000252   -0.24    115.43   
    75. A(C  20,C  21,C  22)          119.30 -0.000133   -0.05    119.25   
    76. A(C  21,C  22,C  23)          119.79  0.000095   -0.03    119.76   
    77. A(H   6,C  22,C  23)          119.35  0.000178   -0.16    119.19   
    78. A(H   6,C  22,C  21)          120.86 -0.000273    0.19    121.05   
    79. A(C  18,C  23,C  22)          121.21 -0.000087    0.08    121.29   
    80. A(H   9,C  23,C  22)          118.82  0.000208   -0.09    118.73   
    81. A(H   9,C  23,C  18)          119.97 -0.000122    0.01    119.98   
    82. A(C  21,O  24,C  25)          118.49  0.001567    0.11    118.60   
    83. A(H   0,C  25,H   4)          107.18  0.000015    0.11    107.29   
    84. A(O  24,C  25,C  26)          110.09  0.000232   -0.05    110.04   
    85. A(H   4,C  25,C  26)          108.92 -0.000565    0.10    109.02   
    86. A(H   0,C  25,C  26)          109.80  0.000342   -0.12    109.68   
    87. A(H   4,C  25,O  24)          110.54  0.000236    0.09    110.63   
    88. A(H   0,C  25,O  24)          110.26 -0.000268   -0.12    110.14   
    89. A(C  27,C  26,C  31)          117.68  0.000021    0.04    117.72   
    90. A(C  25,C  26,C  31)          122.55 -0.000480    0.01    122.57   
    91. A(C  25,C  26,C  27)          119.77  0.000459   -0.05    119.72   
    92. A(C  26,C  27,C  28)          121.67  0.000037    0.02    121.69   
    93. A(H   1,C  27,C  28)          120.29  0.000072   -0.04    120.26   
    94. A(H   1,C  27,C  26)          118.03 -0.000110    0.02    118.05   
    95. A(C  27,C  28,C  29)          120.23 -0.000146   -0.02    120.22   
    96. A(H  12,C  28,C  29)          120.12  0.000101    0.00    120.12   
    97. A(H  12,C  28,C  27)          119.65  0.000044    0.01    119.66   
    98. A(C  28,C  29,C  30)          119.40 -0.000123    0.01    119.41   
    99. A(H   8,C  29,C  30)          119.96  0.000039    0.00    119.96   
   100. A(H   8,C  29,C  28)          120.64  0.000083   -0.01    120.63   
   101. A(C  29,C  30,C  31)          120.56 -0.000081    0.06    120.62   
   102. A(H  10,C  30,C  31)          117.86 -0.000113   -0.03    117.84   
   103. A(H  10,C  30,C  29)          121.58  0.000194   -0.03    121.55   
   104. A(C  30,C  31,N  32)          117.01  0.000987   -0.11    116.90   
   105. A(C  26,C  31,N  32)          122.54 -0.001276    0.21    122.75   
   106. A(C  26,C  31,C  30)          120.45  0.000289   -0.09    120.36   
   107. A(O  33,N  32,O  34)          121.48  0.000083   -0.12    121.36   
   108. A(C  31,N  32,O  34)          119.68 -0.000792    0.10    119.78   
   109. A(C  31,N  32,O  33)          118.83  0.000691   -0.06    118.78   
   110. A(N  36,C  35,H  38)          108.54  0.000290   -0.06    108.48   
   111. A(H  39,C  35,H  40)          109.70  0.000071   -0.09    109.61   
   112. A(H  38,C  35,H  40)          109.92  0.000049   -0.01    109.91   
   113. A(N  36,C  35,H  40)          109.75 -0.000068   -0.03    109.72   
   114. A(H  38,C  35,H  39)          108.25 -0.000068    0.10    108.35   
   115. A(N  36,C  35,H  39)          110.65 -0.000270    0.09    110.74   
   116. A(C  35,N  36,H  37)          117.63 -0.000393    0.02    117.65   
   117. A(C  15,N  36,H  37)          120.35  0.000834   -0.30    120.06   
   118. A(C  15,N  36,C  35)          121.85 -0.000445    0.24    122.09   
   119. A(O  42,C  41,C  43)          124.00  0.000068    0.13    124.13   
   120. A(N  13,C  41,C  43)          114.21  0.000368   -0.27    113.94   
   121. A(N  13,C  41,O  42)          121.70 -0.000479    0.11    121.81   
   122. A(H  45,C  43,H  46)          110.22 -0.000025   -0.03    110.19   
   123. A(H  44,C  43,H  46)          109.71  0.000383   -0.05    109.66   
   124. A(C  41,C  43,H  46)          112.25 -0.000265   -0.04    112.22   
   125. A(H  44,C  43,H  45)          107.28  0.000126    0.07    107.35   
   126. A(C  41,C  43,H  45)          109.07  0.000091    0.04    109.11   
   127. A(C  41,C  43,H  44)          108.16 -0.000298    0.01    108.17   
   128. D(C  16,C  14,N  13,C  41)   -154.93  0.000385   -0.80   -155.73   
   129. D(C  15,C  14,N  13,C  41)     33.00  0.000436   -0.78     32.22   
   130. D(C  16,C  14,N  13,H  11)     18.14  0.000216   -0.31     17.83   
   131. D(C  15,C  14,N  13,H  11)   -153.93  0.000268   -0.29   -154.22   
   132. D(N  36,C  15,C  14,N  13)   -155.98  0.000405    0.00   -155.98   
   133. D(O  17,C  15,C  14,C  16)   -144.94 -0.000088    0.83   -144.11   
   134. D(N  36,C  15,C  14,C  16)     32.27  0.000411    0.05     32.33   
   135. D(O  17,C  15,C  14,N  13)     26.81 -0.000094    0.78     27.59   
   136. D(H   7,C  16,C  14,C  15)    -96.78  0.000174   -1.57    -98.34   
   137. D(C  18,C  16,C  14,N  13)    -29.24  0.000161   -1.37    -30.61   
   138. D(H   3,C  16,C  14,C  15)     20.80  0.000040   -1.41     19.39   
   139. D(H   3,C  16,C  14,N  13)   -150.99  0.000087   -1.39   -152.38   
   140. D(H   7,C  16,C  14,N  13)     91.43  0.000221   -1.55     89.89   
   141. D(C  19,C  18,C  16,H   3)     58.30  0.000152   -0.88     57.41   
   142. D(C  19,C  18,C  16,H   7)    175.74  0.000073   -0.77    174.98   
   143. D(C  19,C  18,C  16,C  14)    -63.53  0.000022   -0.89    -64.41   
   144. D(C  23,C  18,C  16,H   7)     -4.33 -0.000019   -0.81     -5.14   
   145. D(C  23,C  18,C  16,H   3)   -121.77  0.000060   -0.93   -122.70   
   146. D(C  20,C  19,C  18,C  16)   -179.94 -0.000206    0.30   -179.64   
   147. D(H   5,C  19,C  18,C  23)   -179.85 -0.000019    0.15   -179.70   
   148. D(C  20,C  19,C  18,C  23)      0.13 -0.000116    0.34      0.47   
   149. D(H   5,C  19,C  18,C  16)      0.08 -0.000108    0.11      0.19   
   150. D(C  21,C  20,C  19,C  18)      0.40  0.000156   -0.21      0.19   
   151. D(C  21,C  20,C  19,H   5)   -179.62  0.000059   -0.02   -179.64   
   152. D(H   2,C  20,C  19,C  18)   -179.96  0.000058   -0.18   -180.13   
   153. D(H   2,C  20,C  19,H   5)      0.02 -0.000040    0.01      0.03   
   154. D(O  24,C  21,C  20,C  19)   -179.68 -0.000045   -0.35   -180.02   
   155. D(O  24,C  21,C  20,H   2)      0.67  0.000053   -0.38      0.29   
   156. D(C  22,C  21,C  20,C  19)     -0.80 -0.000145    0.05     -0.76   
   157. D(C  22,C  21,C  20,H   2)    179.54 -0.000047    0.01    179.55   
   158. D(H   6,C  22,C  21,C  20)   -178.94  0.000262    0.04   -178.90   
   159. D(C  23,C  22,C  21,O  24)    179.44 -0.000017    0.39    179.83   
   160. D(C  23,C  22,C  21,C  20)      0.68  0.000101   -0.01      0.67   
   161. D(H   6,C  22,C  21,O  24)     -0.18  0.000143    0.44      0.26   
   162. D(C  18,C  23,C  22,C  21)     -0.15 -0.000066    0.14     -0.02   
   163. D(C  18,C  23,C  22,H   6)    179.47 -0.000226    0.09    179.56   
   164. D(H   9,C  23,C  22,C  21)    180.00  0.000098   -0.29    179.70   
   165. D(H   9,C  23,C  22,H   6)     -0.38 -0.000062   -0.34     -0.72   
   166. D(C  22,C  23,C  18,C  19)     -0.26  0.000072   -0.30     -0.56   
   167. D(C  22,C  23,C  18,C  16)    179.81  0.000163   -0.25    179.56   
   168. D(H   9,C  23,C  18,C  19)    179.59 -0.000093    0.14    179.73   
   169. D(H   9,C  23,C  18,C  16)     -0.34 -0.000002    0.18     -0.15   
   170. D(C  25,O  24,C  21,C  22)     11.68  0.001174   -5.80      5.88   
   171. D(C  25,O  24,C  21,C  20)   -169.52  0.001060   -5.41   -174.92   
   172. D(C  26,C  25,O  24,C  21)    168.16 -0.000595    3.26    171.42   
   173. D(H   4,C  25,O  24,C  21)     47.79 -0.000192    3.12     50.90   
   174. D(H   0,C  25,O  24,C  21)    -70.54 -0.000190    3.00    -67.54   
   175. D(C  31,C  26,C  25,H   4)    -66.89 -0.000032    2.50    -64.39   
   176. D(C  31,C  26,C  25,H   0)     50.19 -0.000146    2.62     52.81   
   177. D(C  27,C  26,C  25,O  24)     -8.11 -0.000190    2.61     -5.50   
   178. D(C  27,C  26,C  25,H   4)    113.24 -0.000114    2.75    115.99   
   179. D(C  27,C  26,C  25,H   0)   -129.68 -0.000228    2.87   -126.81   
   180. D(C  28,C  27,C  26,C  31)     -0.55 -0.000159    0.19     -0.37   
   181. D(C  28,C  27,C  26,C  25)    179.33 -0.000081   -0.05    179.27   
   182. D(H   1,C  27,C  26,C  31)    179.98 -0.000062   -0.05    179.93   
   183. D(H   1,C  27,C  26,C  25)     -0.14  0.000016   -0.30     -0.43   
   184. D(C  29,C  28,C  27,C  26)     -0.15  0.000042   -0.08     -0.23   
   185. D(C  29,C  28,C  27,H   1)    179.30 -0.000059    0.16    179.46   
   186. D(H  12,C  28,C  27,C  26)    179.93  0.000089   -0.12    179.81   
   187. D(H  12,C  28,C  27,H   1)     -0.62 -0.000011    0.12     -0.50   
   188. D(C  30,C  29,C  28,H  12)   -179.63 -0.000004    0.03   -179.60   
   189. D(H   8,C  29,C  28,C  27)   -179.80  0.000021    0.13   -179.67   
   190. D(H   8,C  29,C  28,H  12)      0.13 -0.000026    0.16      0.29   
   191. D(C  30,C  29,C  28,C  27)      0.45  0.000044   -0.01      0.44   
   192. D(C  31,C  30,C  29,C  28)     -0.03 -0.000013   -0.02     -0.05   
   193. D(C  31,C  30,C  29,H   8)   -179.78  0.000010   -0.15   -179.94   
   194. D(H  10,C  30,C  29,C  28)    179.50 -0.000060    0.09    179.59   
   195. D(H  10,C  30,C  29,H   8)     -0.25 -0.000037   -0.05     -0.30   
   196. D(N  32,C  31,C  30,C  29)    178.89 -0.000195    0.32    179.21   
   197. D(N  32,C  31,C  30,H  10)     -0.66 -0.000151    0.21     -0.44   
   198. D(C  26,C  31,C  30,C  29)     -0.70 -0.000112    0.14     -0.56   
   199. D(C  26,C  31,C  30,H  10)    179.76 -0.000068    0.03    179.79   
   200. D(N  32,C  31,C  26,C  27)   -178.59  0.000271   -0.41   -179.00   
   201. D(N  32,C  31,C  26,C  25)      1.53  0.000190   -0.16      1.37   
   202. D(C  30,C  31,C  26,C  27)      0.97  0.000193   -0.22      0.75   
   203. D(C  30,C  31,C  26,C  25)   -178.91  0.000112    0.03   -178.88   
   204. D(O  34,N  32,C  31,C  30)   -171.06 -0.000488   -2.36   -173.42   
   205. D(O  34,N  32,C  31,C  26)      8.52 -0.000566   -2.18      6.33   
   206. D(O  33,N  32,C  31,C  30)      9.73  0.000954   -2.04      7.70   
   207. D(O  33,N  32,C  31,C  26)   -170.69  0.000877   -1.86   -172.55   
   208. D(H  37,N  36,C  35,H  39)    -92.66 -0.000395    2.20    -90.46   
   209. D(H  37,N  36,C  35,H  38)    148.69 -0.000330    2.06    150.75   
   210. D(C  15,N  36,C  35,H  40)   -146.83 -0.000510    2.78   -144.05   
   211. D(C  15,N  36,C  35,H  39)     91.97 -0.000379    2.86     94.83   
   212. D(C  15,N  36,C  35,H  38)    -26.68 -0.000314    2.71    -23.97   
   213. D(H  37,N  36,C  15,O  17)   -176.05  0.000267    0.32   -175.73   
   214. D(H  37,N  36,C  15,C  14)      6.75 -0.000283    0.87      7.62   
   215. D(C  35,N  36,C  15,O  17)     -0.80  0.000193   -0.36     -1.16   
   216. D(C  35,N  36,C  15,C  14)   -178.00 -0.000357    0.20   -177.80   
   217. D(C  43,C  41,N  13,C  14)   -169.62 -0.000249    0.51   -169.11   
   218. D(C  43,C  41,N  13,H  11)     17.41 -0.000034    0.06     17.47   
   219. D(O  42,C  41,N  13,C  14)     13.61  0.000552   -0.40     13.21   
   220. D(O  42,C  41,N  13,H  11)   -159.36  0.000767   -0.84   -160.20   
   221. D(H  46,C  43,C  41,N  13)      1.64  0.000248   -0.60      1.04   
   222. D(H  45,C  43,C  41,O  42)     55.88 -0.000449    0.50     56.37   
   223. D(H  45,C  43,C  41,N  13)   -120.81  0.000393   -0.57   -121.38   
   224. D(H  44,C  43,C  41,O  42)    -60.49 -0.000484    0.39    -60.11   
   225. D(H  44,C  43,C  41,N  13)    122.82  0.000358   -0.68    122.14   
    ----------------------------------------------------------------------------

Geometry step timings:
Preparation and reading OPT file:      0.000 s ( 0.221 %)
Internal coordinates            :      0.000 s ( 0.254 %)
B/P matrices and projection     :      0.004 s (40.097 %)
Hessian update/contruction      :      0.001 s ( 9.892 %)
Making the step                 :      0.004 s (39.116 %)
Converting the step to Cartesian:      0.000 s ( 4.477 %)
Storing new data                :      0.000 s ( 0.364 %)
Checking convergence            :      0.000 s ( 0.386 %)
Final printing                  :      0.000 s ( 5.183 %)
Total time                      :      0.009 s

Time for energy+gradient        :      0.058 s
Time for complete geometry iter :      0.068 s




    ----------------------------------------------------------------------------
                                  WARNING !!!
       The optimization did not converge but reached the maximum number of
       optimization cycles.
       Please check your results very carefully.
    ----------------------------------------------------------------------------



--------------------------------
SUGGESTED CITATIONS FOR THIS RUN
--------------------------------

Below you find a list of papers that are relevant to this ORCA run
We neither can nor want to force you to cite these papers, but we appreciate if you do
You receive ORCA, which is the product of decades of hard work by many enthusiastic individuals, for free
The only thing we kindly ask in return is that you cite our papers,
We deeply appreciate it, if you show your appreciation for ORCA by not just citing the generic ORCA reference.

Please note that relegating all ORCA citations to the supporting information does *not* help us.
SI sections are not indexed - citations you put there will not count into any citation statistics
But we need these citations in order to attract the funding resources that allow us to do what we are doing

Therefore, if you are a happy ORCA user, please consider citing a few of the papers listed below in the main body of your paper

In addition to the list printed below, the program has created the file /home/esp/scriptDevelopment/drFrankenstein/11_PCY_CHARMM/01_termini_capping/geometry_optimisation/orca_opt.bibtex that contains the list in bibtex format
You can import this file easily into all common literature databanks and citation aid programs


List of essential papers. We consider these as the minimum necessary citations

  1. Bannwarth, C.; Ehlert, S.; Grimme, S.
     GFN2-xTB—An Accurate and Broadly Parametrized Self-Consistent Tight-Binding Quantum Chemical Method with Multipole Electrostatics and Density-Dependent Dispersion Contributions
     J. Chem. Theory Comput. 2019 15(3), 1652-1671
     doi.org/10.1021/acs.jctc.8b01176
  2. Neese, F.
     Software update: the ORCA program system, version 6.0
     WIRES Comput. Molec. Sci. 2025 15(1), e70019
     doi.org/10.1002/wcms.7019

List of papers to cite with high priority. The work reported in these papers was absolutely
necessary for this run to complete.
Our perspective: the developers of density functionals and basis sets usually get cited in chemistry papers
Good! But without the algorithms to do something with them, the functionals or basis sets would not do anything.
Hence, in our opinion, the algorithm design and method developments papers are equally worthy of getting cited

  1. Bannwarth, C.; Caldeweyher, E.; Ehlert, S.; Hansen, A.; Pracht, P.; Seibert, J.; Spicher, S.; Grimme, S.
     Extended tight-binding quantum chemistry methods
     WIRES Comput. Molec. Sci. 2020 11(2), e1493
     doi.org/10.1002/wcms.1493

List of suggested additional citations. These are papers that are important in the 'surrounding' of 
of this run, or papers that preceded the highly important papers. If you like your results we are grateful for a citation.

  1. Neese, F.
     The ORCA program system
     WIRES Comput. Molec. Sci. 2012 2(1), 73-78
     doi.org/10.1002/wcms.81
  2. Neese, F.
     Software update: the ORCA program system, version 4.0
     WIRES Comput. Molec. Sci. 2018 8(1), 1-6
     doi.org/10.1002/wcms.1327
  3. Neese, F.; Wennmohs, F.; Becker, U.; Riplinger, C.
     The ORCA quantum chemistry program package
     J. Chem. Phys. 2020 152(22), 224108
     doi.org/10.1063/5.0004608
  4. Neese, F.
     Software update: The ORCA program system—Version 5.0
     WIRES Comput. Molec. Sci. 2022 12(1), e1606
     doi.org/10.1002/wcms.1606

List of optional additional citations

  1. Neese, F.
     Approximate second-order SCF convergence for spin unrestricted wavefunctions
     Chem. Phys. Lett. 2000 325(1-3), 93-98
     doi.org/10.1016/s0009-2614(00)00662-x

Timings for individual modules:

Sum of individual times          ...        0.703 sec (=   0.012 min)
Geometry relaxation              ...        0.099 sec (=   0.002 min)  14.1 %
XTB module                       ...        0.604 sec (=   0.010 min)  85.9 %
                             ****ORCA TERMINATED NORMALLY****
TOTAL RUN TIME: 0 days 0 hours 0 minutes 0 seconds 826 msec
