
                                 *****************
                                 * O   R   C   A *
                                 *****************

                                            #,                                       
                                            ###                                      
                                            ####                                     
                                            #####                                    
                                            ######                                   
                                           ########,                                 
                                     ,,################,,,,,                         
                               ,,#################################,,                 
                          ,,##########################################,,             
                       ,#########################################, ''#####,          
                    ,#############################################,,   '####,        
                  ,##################################################,,,,####,       
                ,###########''''           ''''###############################       
              ,#####''   ,,,,##########,,,,          '''####'''          '####       
            ,##' ,,,,###########################,,,                        '##       
           ' ,,###''''                  '''############,,,                           
         ,,##''                                '''############,,,,        ,,,,,,###''
      ,#''                                            '''#######################'''  
     '                                                          ''''####''''         
             ,#######,   #######,   ,#######,      ##                                
            ,#'     '#,  ##    ##  ,#'     '#,    #''#        ,####,    ,#,          
            ##       ##  ##   ,#'  ##            #'  '#       #'       ,# #          
            ##       ##  #######   ##           ,######,      #####,      #          
            '#,     ,#'  ##    ##  '#,     ,#' ,#      #,     #,   #      #          
             '#######'   ##     ##  '#######'  #'      '#     '####' #    #          



                #########################################################
                #                        -***-                          #
                #          Department of theory and spectroscopy        #
                #                                                       #
                #                      Frank Neese                      #
                #                                                       #
                #     Directorship, Architecture, Infrastructure        #
                #                    SHARK, DRIVERS                     #
                #        Core code/Algorithms in most modules           #
                #                                                       #
                #        Max Planck Institute fuer Kohlenforschung      #
                #                Kaiser Wilhelm Platz 1                 #
                #                 D-45470 Muelheim/Ruhr                 #
                #                      Germany                          #
                #                                                       #
                #                  All rights reserved                  #
                #                        -***-                          #
                #########################################################


                         Program Version 6.1.0  -  RELEASE   -
                                (GIT: $679e74b$)
                          ($2025-06-10 18:02:51 +0200$)


 With contributions from (in alphabetic order):
[Max-Planck-Institut fuer Kohlenforschung]                               
  Daniel Aravena         : Magnetic Suceptibility                        
  Michael Atanasov       : Ab Initio Ligand Field Theory (pilot matlab implementation)
  Alexander A. Auer      : GIAO ZORA, VPT2 properties, NMR spectrum      
  Ute Becker             : All parallelization in ORCA, NUMFREQ, NUMCALC 
  Giovanni Bistoni       : ED, misc. LED, open-shell LED, HFLD           
  Dmytro Bykov           : pre 5.0 version of the SCF Hessian            
  Marcos Casanova-Páez   : Triplet and SCS-CIS(D). UHF-(DLPNO)-IP/EA/STEOM-CCSD. UHF-CVS-IP/STEOM-CCSD   
  Vijay G. Chilkuri      : MRCI spin determinant printing, contributions to CSF-ICE 
  Pauline Colinet        : FMM embedding                                 
  Dipayan Datta          : RHF DLPNO-CCSD density                        
  Achintya Kumar Dutta   : EOM-CC, STEOM-CC                              
  Nicolas Foglia         : Exact transition moments, OPA infrastructure, MCD improvements    
  Dmitry Ganyushin       : Spin-Orbit,Spin-Spin,Magnetic field MRCI      
  Miquel Garcia-Rates    : C-PCM and meta-GGA Hessian, CCSD/C-PCM, Gaussian charge scheme 
  Tiago L. C. Gouveia    : GS-ROHF, GS-ROCIS                             
  Yang Guo               : DLPNO-NEVPT2, F12-NEVPT2, CIM, IAO-localization        
  Andreas Hansen         : Spin unrestricted coupled pair/coupled cluster methods 
  Ingolf Harden          : AUTO-CI MPn and infrastructure                
  Benjamin Helmich-Paris : MC-RPA, TRAH-(SCF,CASSCF), AVAS, COSX integrals, SCF dyn. polar., MC-PDFT, srDFT 
  Lee Huntington         : MR-EOM, pCC                                   
  Robert Izsak           : Overlap fitted RIJCOSX, COSX-SCS-MP3, EOM     
  Riya Kayal             : Wick's Theorem for AUTO-CI, AUTO-CI UHF-CCSDT 
  Emily Kempfer          : AUTO-CI RHF CISDT and CCSDT, approximate NEVPT4
  Christian Kollmar      : KDIIS, OOCD, Brueckner-CCSD(T), CCSD density, CASPT2, CASPT2-K, improved NEVPT2 
  Axel Koslowski         : Symmetry handling                             
  Simone Kossmann        : meta-GGA functionals, TD-DFT gradient, OOMP2, (MP2 Hessian; deprecated post 5.0) 
  Lucas Lang             : DCDCAS, Hyperfine gauge corrections, ICE-SOC+SSC
  Marvin Lechner         : AUTO-CI (C++ implementation), FIC-MRCC        
  Spencer Leger          : CASSCF response                               
  Dagmar Lenk            : GEPOL surface, SMD, ORCA-2-JSON               
  Dimitrios Liakos       : Extrapolation schemes; Compound Job, Property file
  Dimitrios Manganas     : Further ROCIS development; embedding schemes. LFT, Crystal Embedding 
  Dimitrios Pantazis     : SARC Basis sets                               
  Anastasios Papadopoulos: AUTO-CI, single reference methods and gradients 
  Taras Petrenko         : pre 6.0 DFT Hessian and TD-DFT gradient,  ECA, NRVS 
  Petra Pikulova         : Analytic Raman intensities                    
  Peter Pinski           : DLPNO-MP2, DLPNO-MP2 Gradient                 
  Shashank Vittal Rao    : ES-AILFT, MagRelax                            
  Christoph Reimann      : Effective Core Potentials                     
  Marius Retegan         : Local ZFS, SOC                                
  Christoph Riplinger    : Optimizer, TS searches, QM/MM, DLPNO-CCSD(T), (RO)-DLPNO pert. Triples 
  Michael Roemelt        : Original ROCIS implementation, recursive CI coupling coefficients
  Masaaki Saitow         : Open-shell DLPNO-CCSD energy and density      
  Barbara Sandhoefer     : DKH picture change effects                    
  Yorick L. A. Schmerwitz: GMF and freeze-and-release deltaSCF, NEB S-IDPP initial path                    
  Kantharuban Sivalingam : CASSCF convergence/infrastructure, NEVPT2, NEVPT3, NEVPT4(SD), FIC-MRCI and CEPA variants
  Bernardo de Souza      : ESD, SOC TD-DFT                               
  Georgi L. Stoychev     : AutoAux, RI-MP2 NMR, DLPNO-MP2 response, X2C  
  Van Anh Tran           : RI-MP2 g-tensors                              
  Willem Van den Heuvel  : Paramagnetic NMR                              
  Zikuan Wang            : NOTCH, Electric field optimization            
  Frank Wennmohs         : Technical directorship and infrastructure     
  Hang Xu                : AUTO-CI-Response properties                   
                                                                         
[FACCTs GmbH]                                                            
  Markus Bursch, Nicolas Foglia, Miquel Garcia-Rates, Ingolf Harden, Hagen Neugebauer, Anastasios Papadopoulos, 
  Christoph Riplinger, Bernardo de Souza, Georgi L. Stoychev                                                    
                                                                 
  APM, various basis sets, CI-OPT, improved COSX, DLPNO-Multilevel,           
  DOCKER, DRACO, updates on ESD, Fragmentator, GOAT, IRC, LR-CPCM, L-BFGS, MBIS, meta-GGA TD-DFT gradient, ML-optimized integration grids, 
  MM, NACMEs, nearIR, NEB, NEB-TS, NL-DFT gradient (VV10), 2- and 3-layer-ONIOM, interface openCOSMO-RS, QMMM,   
  Crystal-QMMM, RESP, rigid body optimization, SF, symmetry and pop. for TD-DFT, various functionals, SOLVATOR                                   
                                                                         
[Other institutions]                                                     
  V. Asgeirsson          : NEB                                           
  Christoph Bannwarth    : sTDA-DFT, sTD-DFT, PBEh-3c, B97-3c, D3        
  Giovanni Bistoni       : ETS/NOCV, ADLD/ADEX, COVALED                  
  Martin Brehm           : Molecular dynamics                            
  Ronald Cardenas        : ETS/NOCV                                      
  Martina Colucci        : COVALED                                       
  Sebastian Ehlert       : rSCAN, r2SCAN, r2SCAN-3c, D4, dhf basis sets  
  Marvin Friede          : D4 for Fr, Ra, Ac-Lr                          
  Lars Goerigk           : TD-DFT with DH, B97 family of functionals     
  Stefan Grimme          : VdW corrections, initial TS optimization, DFT functionals, gCP, sTDA/sTD-DF 
  Waldemar Hujo          : DFT-NL                                        
  H. Jonsson             : NEB                                           
  Holger Kruse           : gCP                                           
  Marcel Mueller         : wB97X-3c, vDZP basis set                      
  Hagen Neugebauer       : wr2SCAN, Native XTB                           
  Gianluca Regni         : ADLD/ADEX                                     
  Tobias Risthaus        : pre 6.0 range-separated hybrid DFT and stability analysis
  Lukas Wittmann         : regularized MP2, r2SCAN double-hybrids, wr2SCAN        
                                                                         
We gratefully acknowledge several colleagues who have allowed us to      
interface, adapt or use parts of their codes:                            
  Ed Valeev, F. Pavosevic, A. Kumar             : LibInt (2-el integral package), F12 methods 
  Garnet Chan, S. Sharma, J. Yang, R. Olivares  : DMRG                   
  Ulf Ekstrom                                   : XCFun DFT Library      
  Mihaly Kallay                                 : mrcc  (arbitrary order and MRCC methods)
  Frank Weinhold                                : gennbo (NPA and NBO analysis)           
  Simon Mueller                                 : openCOSMO-RS                            
  Christopher J. Cramer and Donald G. Truhlar   : smd solvation model                     
  S Lehtola, MJT Oliveira, MAL Marques          : LibXC Library                           
  Liviu Ungur et al                             : ANISO software                          


 Your calculation uses the libint2 library for the computation of 2-el integrals
 For citations please refer to: http://libint.valeyev.net

 Your ORCA version has been built with support for libXC version: 7.0.0
 For citations please refer to: https://libxc.gitlab.io

 This ORCA versions uses:
   CBLAS   interface :  Fast vector & matrix operations
   LAPACKE interface :  Fast linear algebra routines
   SCALAPACK package :  Parallel linear algebra routines
   Shared memory     :  Shared parallel matrices
   BLAS/LAPACK       :  OpenBLAS 0.3.29  USE64BITINT DYNAMIC_ARCH NO_AFFINITY Haswell SINGLE_THREADED
        Core in use  :  Haswell
   Copyright (c) 2011-2014, The OpenBLAS Project


  ***********************************
  * Starting time: Wed Jul 16 15:48:04 2025
  * Host name:     MONSTER
  * Process ID:    442509
  * Working dir.:  /home/esp/scriptDevelopment/drFrankenstein
  ***********************************



***************************************
The coordinates will be read from file: /home/esp/scriptDevelopment/drFrankenstein/11_PCY_CHARMM/03_GOAT_conformers/PCY_conformer_26.xyz
***************************************


Your calculation utilizes the semiempirical GFN2-xTB method
Please cite in your paper:
Bannwarth, C.; Ehlert S.; Grimme, S. J. Chem. Theory Comput. 2019, 15, 1652.
   

================================================================================

================================================================================
                                        WARNINGS
                       Please study these warnings very carefully!
================================================================================


WARNING: Geometry Optimization
  ===> : Switching off AutoStart
         For restart on a previous wavefunction, please use MOREAD

WARNING: Found dipole moment calculation with XTB calculation
  ===> : Switching off dipole moment calculation


================================================================================
                                       INPUT FILE
================================================================================
NAME = /home/esp/scriptDevelopment/drFrankenstein/11_PCY_CHARMM/04_torsion_scanning/torsion_NH1-CT1-CG321-CG2R61/scans_PCY_conformer_26/PCY_conformer_26_opt/orca_opt.inp
|  1>  # --------------------------------- #
|  2>  #  Geometry Optimisation            #
|  3>  # --------------------------------- #
|  4> ! XTB2 ALPB(water) Opt
|  5> *xyzfile 0 1 /home/esp/scriptDevelopment/drFrankenstein/11_PCY_CHARMM/03_GOAT_conformers/PCY_conformer_26.xyz
|  6> 
|  7> 
|  8>                          ****END OF INPUT****
================================================================================

                       *****************************
                       * Geometry Optimization Run *
                       *****************************

Geometry optimization settings:
Update method            Update   .... BFGS
Choice of coordinates    CoordSys .... (2022) Redundant Internals
Initial Hessian          InHess   .... Almloef's Model
Max. no of cycles        MaxIter  .... 141

Convergence Tolerances:
Energy Change            TolE     ....  5.0000e-06 Eh
Max. Gradient            TolMAXG  ....  3.0000e-04 Eh/bohr
RMS Gradient             TolRMSG  ....  1.0000e-04 Eh/bohr
Max. Displacement        TolMAXD  ....  4.0000e-03 bohr
RMS Displacement         TolRMSD  ....  2.0000e-03 bohr
Strict Convergence                .... False

------------------------------------------------------------------------------
                        ORCA OPTIMIZATION COORDINATE SETUP
------------------------------------------------------------------------------

The optimization will be done in redundant internal coordinates (2022)
Making redundant internal coordinates   ...  (2022 redundants) done
Evaluating the initial hessian          ...  (Almloef) done
Evaluating the coordinates              ...  done
Calculating the B-matrix                .... done
Calculating the G-matrix                .... done
The number of degrees of freedom        ....  227

    -----------------------------------------------------------------
                    Redundant Internal Coordinates


    -----------------------------------------------------------------
         Definition                    Initial Value    Approx d2E/dq
    -----------------------------------------------------------------
      1. B(N  13,H  11)                  1.0244         0.410368   
      2. B(C  14,N  13)                  1.3562         0.633572   
      3. B(C  15,C  14)                  1.4550         0.492072   
      4. B(C  16,H   7)                  1.0910         0.358784   
      5. B(C  16,H   3)                  1.0919         0.357542   
      6. B(C  16,C  14)                  1.4881         0.435786   
      7. B(O  17,C  15)                  1.2342         0.991989   
      8. B(O  17,H  11)                  2.0156         0.010761   
      9. B(C  18,C  16)                  1.5154         0.394103   
     10. B(C  19,C  18)                  1.3905         0.623738   
     11. B(C  19,H   5)                  1.0799         0.373758   
     12. B(C  20,C  19)                  1.3809         0.645921   
     13. B(C  20,H   2)                  1.0794         0.374406   
     14. B(C  21,C  20)                  1.3901         0.624676   
     15. B(C  22,C  21)                  1.3892         0.626618   
     16. B(C  22,H   6)                  1.0797         0.373982   
     17. B(C  23,C  22)                  1.3821         0.643223   
     18. B(C  23,C  18)                  1.3874         0.630804   
     19. B(C  23,H   9)                  1.0784         0.375762   
     20. B(O  24,C  21)                  1.3839         0.572290   
     21. B(C  25,O  24)                  1.4260         0.490340   
     22. B(C  25,H   4)                  1.0933         0.355778   
     23. B(C  25,H   0)                  1.0917         0.357858   
     24. B(C  26,C  25)                  1.5104         0.401465   
     25. B(C  27,C  26)                  1.3903         0.624153   
     26. B(C  27,H   1)                  1.0796         0.374060   
     27. B(C  28,C  27)                  1.3834         0.640129   
     28. B(C  28,H  12)                  1.0793         0.374472   
     29. B(C  29,C  28)                  1.3865         0.632800   
     30. B(C  29,H   8)                  1.0787         0.375370   
     31. B(C  30,C  29)                  1.3784         0.652038   
     32. B(C  30,H  10)                  1.0789         0.375058   
     33. B(C  31,C  30)                  1.3945         0.614624   
     34. B(C  31,C  26)                  1.4018         0.598267   
     35. B(N  32,C  31)                  1.4349         0.474423   
     36. B(O  33,N  32)                  1.2218         0.929832   
     37. B(O  34,N  32)                  1.2186         0.940636   
     38. B(N  36,C  35)                  1.4393         0.466894   
     39. B(N  36,C  15)                  1.3604         0.623828   
     40. B(H  37,N  36)                  1.0057         0.439616   
     41. B(H  38,C  35)                  1.0922         0.357168   
     42. B(H  39,C  35)                  1.0925         0.356849   
     43. B(H  40,C  35)                  1.0889         0.361575   
     44. B(C  41,N  13)                  1.3736         0.594379   
     45. B(O  42,C  41)                  1.2132         1.071268   
     46. B(C  43,C  41)                  1.5069         0.406697   
     47. B(H  44,C  43)                  1.0861         0.365306   
     48. B(H  45,O  33)                  2.4258         0.010000   
     49. B(H  45,C  43)                  1.0875         0.363369   
     50. B(H  46,C  43)                  1.0879         0.362851   
     51. A(H  11,N  13,C  41)          118.3356         0.352920   
     52. A(C  14,N  13,C  41)          131.4072         0.426836   
     53. A(H  11,N  13,C  14)          110.2452         0.356762   
     54. A(N  13,C  14,C  15)          111.6640         0.415382   
     55. A(N  13,C  14,C  16)          121.2500         0.406531   
     56. A(C  15,C  14,C  16)          126.8936         0.391364   
     57. A(O  17,C  15,N  36)          122.0598         0.467033   
     58. A(C  14,C  15,O  17)          119.8254         0.450241   
     59. A(C  14,C  15,N  36)          118.1126         0.414239   
     60. A(H   3,C  16,H   7)          108.7739         0.290347   
     61. A(H   3,C  16,C  14)          111.4956         0.332275   
     62. A(C  14,C  16,C  18)          108.4745         0.376546   
     63. A(H   3,C  16,C  18)          110.5601         0.326801   
     64. A(H   7,C  16,C  14)          109.1039         0.332466   
     65. A(H   7,C  16,C  18)          108.3707         0.326988   
     66. A(C  16,C  18,C  23)          120.3622         0.401652   
     67. A(C  19,C  18,C  23)          119.1663         0.435890   
     68. A(C  16,C  18,C  19)          120.4196         0.400856   
     69. A(C  18,C  19,C  20)          120.7251         0.437754   
     70. A(H   5,C  19,C  18)          120.1214         0.355504   
     71. A(H   5,C  19,C  20)          119.1360         0.357621   
     72. A(H   2,C  20,C  21)          119.7333         0.355699   
     73. A(C  19,C  20,C  21)          119.7641         0.437873   
     74. A(H   2,C  20,C  19)          120.4856         0.357726   
     75. A(C  22,C  21,O  24)          119.2209         0.425889   
     76. A(C  20,C  21,O  24)          120.9784         0.425652   
     77. A(C  20,C  21,C  22)          119.7935         0.435485   
     78. A(C  21,C  22,C  23)          120.0611         0.437787   
     79. A(H   6,C  22,C  23)          120.7981         0.357403   
     80. A(H   6,C  22,C  21)          119.1329         0.355819   
     81. A(C  18,C  23,C  22)          120.4672         0.438313   
     82. A(H   9,C  23,C  22)          119.7648         0.357691   
     83. A(H   9,C  23,C  18)          119.7264         0.356508   
     84. A(C  21,O  24,C  25)          113.1558         0.405076   
     85. A(H   0,C  25,H   4)          109.5546         0.290004   
     86. A(O  24,C  25,C  26)          108.5554         0.383125   
     87. A(H   4,C  25,C  26)          112.1270         0.327532   
     88. A(H   0,C  25,C  26)          110.3116         0.327847   
     89. A(H   4,C  25,O  24)          110.9478         0.336523   
     90. A(H   0,C  25,O  24)          105.1117         0.336850   
     91. A(C  27,C  26,C  31)          117.5000         0.431808   
     92. A(C  25,C  26,C  31)          123.7266         0.399224   
     93. A(C  25,C  26,C  27)          118.0417         0.402212   
     94. A(C  26,C  27,C  28)          121.8272         0.437096   
     95. A(H   1,C  27,C  28)          119.7248         0.357123   
     96. A(H   1,C  27,C  26)          118.4436         0.355593   
     97. A(C  27,C  28,C  29)          119.9973         0.438182   
     98. A(H  12,C  28,C  29)          120.1665         0.356491   
     99. A(H  12,C  28,C  27)          119.8297         0.357189   
    100. A(C  28,C  29,C  30)          119.4428         0.439642   
    101. A(H   8,C  29,C  30)          120.0298         0.358457   
    102. A(H   8,C  29,C  28)          120.5274         0.356636   
    103. A(C  29,C  30,C  31)          120.5131         0.437336   
    104. A(H  10,C  30,C  31)          118.3928         0.354827   
    105. A(H  10,C  30,C  29)          121.0940         0.358406   
    106. A(C  30,C  31,N  32)          115.9370         0.410478   
    107. A(C  26,C  31,N  32)          123.3523         0.408522   
    108. A(C  26,C  31,C  30)          120.6931         0.430616   
    109. A(O  33,N  32,O  34)          123.5125         0.490991   
    110. A(C  31,N  32,O  34)          119.0905         0.437123   
    111. A(C  31,N  32,O  33)          117.3528         0.436214   
    112. A(N  36,C  35,H  38)          110.8123         0.334010   
    113. A(H  39,C  35,H  40)          109.3930         0.290612   
    114. A(H  38,C  35,H  40)          109.3710         0.290653   
    115. A(N  36,C  35,H  40)          107.2746         0.334691   
    116. A(H  38,C  35,H  39)          109.0709         0.290053   
    117. A(N  36,C  35,H  39)          110.8851         0.333960   
    118. A(C  35,N  36,H  37)          117.8601         0.342810   
    119. A(C  15,N  36,H  37)          120.1716         0.360014   
    120. A(C  15,N  36,C  35)          121.9653         0.407751   
    121. A(O  42,C  41,C  43)          124.3832         0.441065   
    122. A(N  13,C  41,C  43)          111.6907         0.397119   
    123. A(N  13,C  41,O  42)          123.9064         0.469482   
    124. A(H  45,C  43,H  46)          108.7548         0.291601   
    125. A(H  44,C  43,H  46)          109.4586         0.291845   
    126. A(C  41,C  43,H  46)          110.3596         0.329301   
    127. A(H  44,C  43,H  45)          109.8997         0.291911   
    128. A(C  41,C  43,H  45)          108.7545         0.329378   
    129. A(C  41,C  43,H  44)          109.5976         0.329668   
    130. D(C  16,C  14,N  13,C  41)    -10.0391         0.032617   
    131. D(C  15,C  14,N  13,C  41)    174.6696         0.032617   
    132. D(C  16,C  14,N  13,H  11)    171.2722         0.032617   
    133. D(C  15,C  14,N  13,H  11)     -4.0191         0.032617   
    134. D(N  36,C  15,C  14,N  13)    176.2762         0.016488   
    135. D(O  17,C  15,C  14,C  16)   -179.2229         0.016488   
    136. D(N  36,C  15,C  14,C  16)      1.3105         0.016488   
    137. D(O  17,C  15,C  14,N  13)     -4.2571         0.016488   
    138. D(H   7,C  16,C  14,C  15)   -143.1398         0.014018   
    139. D(C  18,C  16,C  14,N  13)    -75.5297         0.014018   
    140. D(H   3,C  16,C  14,C  15)    -22.9771         0.014018   
    141. D(H   3,C  16,C  14,N  13)    162.4968         0.014018   
    142. D(H   7,C  16,C  14,N  13)     42.3342         0.014018   
    143. D(C  19,C  18,C  16,H   3)     63.7538         0.011543   
    144. D(C  19,C  18,C  16,H   7)   -177.1194         0.011543   
    145. D(C  19,C  18,C  16,C  14)    -58.7896         0.011543   
    146. D(C  23,C  18,C  16,H   7)      0.2397         0.011543   
    147. D(C  23,C  18,C  16,H   3)   -118.8872         0.011543   
    148. D(C  20,C  19,C  18,C  16)    176.3451         0.026941   
    149. D(H   5,C  19,C  18,C  23)   -179.5127         0.026941   
    150. D(C  20,C  19,C  18,C  23)     -1.0453         0.026941   
    151. D(H   5,C  19,C  18,C  16)     -2.1223         0.026941   
    152. D(C  21,C  20,C  19,C  18)     -0.2330         0.029024   
    153. D(C  21,C  20,C  19,H   5)    178.2493         0.029024   
    154. D(H   2,C  20,C  19,C  18)   -178.7299         0.029024   
    155. D(H   2,C  20,C  19,H   5)     -0.2476         0.029024   
    156. D(O  24,C  21,C  20,C  19)   -177.6307         0.027027   
    157. D(O  24,C  21,C  20,H   2)      0.8776         0.027027   
    158. D(C  22,C  21,C  20,C  19)      1.3811         0.027027   
    159. D(C  22,C  21,C  20,H   2)    179.8894         0.027027   
    160. D(H   6,C  22,C  21,C  20)    179.7701         0.027206   
    161. D(C  23,C  22,C  21,O  24)    177.7826         0.027206   
    162. D(C  23,C  22,C  21,C  20)     -1.2467         0.027206   
    163. D(H   6,C  22,C  21,O  24)     -1.2007         0.027206   
    164. D(C  18,C  23,C  22,C  21)     -0.0428         0.028765   
    165. D(C  18,C  23,C  22,H   6)    178.9232         0.028765   
    166. D(H   9,C  23,C  22,C  21)   -177.6909         0.028765   
    167. D(H   9,C  23,C  22,H   6)      1.2751         0.028765   
    168. D(C  22,C  23,C  18,C  19)      1.1822         0.027594   
    169. D(C  22,C  23,C  18,C  16)   -176.2098         0.027594   
    170. D(H   9,C  23,C  18,C  19)    178.8312         0.027594   
    171. D(H   9,C  23,C  18,C  16)      1.4392         0.027594   
    172. D(C  25,O  24,C  21,C  22)   -104.8622         0.023784   
    173. D(C  25,O  24,C  21,C  20)     74.1553         0.023784   
    174. D(C  26,C  25,O  24,C  21)     66.4724         0.018986   
    175. D(H   4,C  25,O  24,C  21)    -57.1649         0.018986   
    176. D(H   0,C  25,O  24,C  21)   -175.4986         0.018986   
    177. D(C  31,C  26,C  25,H   4)     36.2630         0.011957   
    178. D(C  31,C  26,C  25,H   0)    158.6594         0.011957   
    179. D(C  27,C  26,C  25,O  24)     83.2731         0.011957   
    180. D(C  27,C  26,C  25,H   4)   -153.7986         0.011957   
    181. D(C  27,C  26,C  25,H   0)    -31.4022         0.011957   
    182. D(C  28,C  27,C  26,C  31)     -0.5421         0.026979   
    183. D(C  28,C  27,C  26,C  25)   -171.1138         0.026979   
    184. D(H   1,C  27,C  26,C  31)    178.6909         0.026979   
    185. D(H   1,C  27,C  26,C  25)      8.1191         0.026979   
    186. D(C  29,C  28,C  27,C  26)      1.6260         0.028471   
    187. D(C  29,C  28,C  27,H   1)   -177.5974         0.028471   
    188. D(H  12,C  28,C  27,C  26)   -179.3076         0.028471   
    189. D(H  12,C  28,C  27,H   1)      1.4690         0.028471   
    190. D(C  30,C  29,C  28,H  12)    179.7341         0.027780   
    191. D(H   8,C  29,C  28,C  27)    178.7801         0.027780   
    192. D(H   8,C  29,C  28,H  12)     -0.2831         0.027780   
    193. D(C  30,C  29,C  28,C  27)     -1.2027         0.027780   
    194. D(C  31,C  30,C  29,C  28)     -0.2594         0.029615   
    195. D(C  31,C  30,C  29,H   8)    179.7577         0.029615   
    196. D(H  10,C  30,C  29,C  28)    179.8620         0.029615   
    197. D(H  10,C  30,C  29,H   8)     -0.1209         0.029615   
    198. D(N  32,C  31,C  30,C  29)   -177.1736         0.026113   
    199. D(N  32,C  31,C  30,H  10)      2.7082         0.026113   
    200. D(C  26,C  31,C  30,C  29)      1.3479         0.026113   
    201. D(C  26,C  31,C  30,H  10)   -178.7703         0.026113   
    202. D(N  32,C  31,C  26,C  27)    177.4723         0.024667   
    203. D(N  32,C  31,C  26,C  25)    -12.5389         0.024667   
    204. D(C  30,C  31,C  26,C  27)     -0.9360         0.024667   
    205. D(C  30,C  31,C  26,C  25)    169.0528         0.024667   
    206. D(O  34,N  32,C  31,C  30)    151.6223         0.017747   
    207. D(O  34,N  32,C  31,C  26)    -26.8557         0.017747   
    208. D(O  33,N  32,C  31,C  30)    -26.0460         0.017747   
    209. D(O  33,N  32,C  31,C  26)    155.4761         0.017747   
    210. D(H  37,N  36,C  35,H  39)     61.0856         0.018619   
    211. D(H  37,N  36,C  35,H  38)    -60.1906         0.018619   
    212. D(C  15,N  36,C  35,H  40)      1.1213         0.018619   
    213. D(C  15,N  36,C  35,H  39)   -118.2747         0.018619   
    214. D(C  15,N  36,C  35,H  38)    120.4491         0.018619   
    215. D(H  37,N  36,C  15,O  17)   -179.7664         0.031543   
    216. D(H  37,N  36,C  15,C  14)     -0.3124         0.031543   
    217. D(C  35,N  36,C  15,O  17)     -0.4205         0.031543   
    218. D(C  35,N  36,C  15,C  14)    179.0335         0.031543   
    219. D(C  43,C  41,N  13,C  14)    179.4233         0.028429   
    220. D(C  43,C  41,N  13,H  11)     -1.9745         0.028429   
    221. D(O  42,C  41,N  13,C  14)     -2.1278         0.028429   
    222. D(O  42,C  41,N  13,H  11)    176.4744         0.028429   
    223. D(H  46,C  43,C  41,N  13)     58.0001         0.012258   
    224. D(H  45,C  43,C  41,O  42)    120.3393         0.012258   
    225. D(H  45,C  43,C  41,N  13)    -61.2206         0.012258   
    226. D(H  44,C  43,C  41,O  42)      0.1769         0.012258   
    227. D(H  44,C  43,C  41,N  13)    178.6170         0.012258   
    -----------------------------------------------------------------

Number of atoms                         .... 47
Number of degrees of freedom            .... 227


         *************************************************************
         *                GEOMETRY OPTIMIZATION CYCLE   1            *
         *************************************************************
---------------------------------
CARTESIAN COORDINATES (ANGSTROEM)
---------------------------------
  H    -1.681290   -1.042570    4.442920
  H    -0.803390   -3.089230    3.679660
  H    -1.343220    2.414590    2.867540
  H     1.054450    3.906440   -1.177790
  H    -2.382340    0.171150    3.337720
  H    -0.942730    3.656660    0.788900
  H     1.287240   -0.670010    1.540980
  H     1.253520    2.332810   -1.973700
  H    -1.044180   -4.263210   -0.418590
  H     1.684920    0.570790   -0.557840
  H    -1.970600   -2.036310   -0.975780
  H    -2.279830    2.225530   -2.878260
  H    -0.493820   -4.792260    1.937680
  N    -1.318630    1.993950   -2.610080
  C    -0.732770    3.054750   -2.001180
  C    -1.603870    4.220170   -1.997030
  C     0.594870    2.929440   -1.340860
  O    -2.691020    4.175990   -2.579530
  C     0.409690    2.202000   -0.024390
  C    -0.437380    2.716210    0.951030
  C    -0.669060    2.021520    2.121820
  C    -0.053820    0.792220    2.328090
  C     0.812280    0.284080    1.368110
  C     1.040910    0.987130    0.200370
  O    -0.305870    0.052230    3.470040
  C    -1.588740   -0.570320    3.463010
  C    -1.609690   -1.615760    2.373090
  C    -1.082440   -2.869770    2.660050
  C    -0.895310   -3.824890    1.676930
  C    -1.205110   -3.531670    0.357640
  C    -1.722220   -2.293520    0.042170
  C    -1.939040   -1.342060    1.038290
  N    -2.538690   -0.110700    0.610220
  O    -2.370220    0.220950   -0.553550
  O    -3.217410    0.523450    1.399050
  C    -1.961670    6.543300   -1.311030
  N    -1.176300    5.337780   -1.349820
  H    -0.283350    5.343520   -0.887200
  H    -2.196000    6.820830   -0.280970
  H    -1.431680    7.369020   -1.791430
  H    -2.886240    6.344380   -1.850730
  C    -0.837470    0.745790   -2.922040
  O     0.301460    0.386590   -2.708160
  C    -1.885610   -0.103290   -3.593710
  H    -1.463020   -1.071260   -3.846790
  H    -2.722030   -0.231710   -2.910590
  H    -2.244270    0.383270   -4.498260

----------------------------
CARTESIAN COORDINATES (A.U.)
----------------------------
  NO LB    ZA    FRAG    MASS        X           Y           Z
   0 H   1.0000    0     1.008   -3.177178   -1.970172    8.395902
   1 H   1.0000    0     1.008   -1.518187   -5.837799    6.953550
   2 H   1.0000    0     1.008   -2.538318    4.562914    5.418865
   3 H   1.0000    0     1.008    1.992622    7.382102   -2.225701
   4 H   1.0000    0     1.008   -4.501970    0.323427    6.307377
   5 H   1.0000    0     1.008   -1.781502    6.910086    1.490805
   6 H   1.0000    0     1.008    2.432531   -1.266135    2.912030
   7 H   1.0000    0     1.008    2.368810    4.408372   -3.729752
   8 H   1.0000    0     1.008   -1.973214   -8.056299   -0.791020
   9 H   1.0000    0     1.008    3.184037    1.078637   -1.054165
  10 H   1.0000    0     1.008   -3.723894   -3.848068   -1.843957
  11 H   1.0000    0     1.008   -4.308254    4.205642   -5.439123
  12 H   1.0000    0     1.008   -0.933185   -9.056059    3.661685
  13 N   7.0000    0    14.007   -2.491850    3.768019   -4.932336
  14 C   6.0000    0    12.011   -1.384735    5.772641   -3.781682
  15 C   6.0000    0    12.011   -3.030875    7.974966   -3.773840
  16 C   6.0000    0    12.011    1.124141    5.535839   -2.533858
  17 O   8.0000    0    15.999   -5.085291    7.891477   -4.874605
  18 C   6.0000    0    12.011    0.774202    4.161177   -0.046090
  19 C   6.0000    0    12.011   -0.826528    5.132893    1.797186
  20 C   6.0000    0    12.011   -1.264340    3.820119    4.009659
  21 C   6.0000    0    12.011   -0.101705    1.497079    4.399453
  22 C   6.0000    0    12.011    1.534987    0.536833    2.585353
  23 C   6.0000    0    12.011    1.967035    1.865405    0.378644
  24 O   8.0000    0    15.999   -0.578011    0.098700    6.557425
  25 C   6.0000    0    12.011   -3.002283   -1.077749    6.544140
  26 C   6.0000    0    12.011   -3.041873   -3.053344    4.484490
  27 C   6.0000    0    12.011   -2.045515   -5.423079    5.026766
  28 C   6.0000    0    12.011   -1.691891   -7.227995    3.168938
  29 C   6.0000    0    12.011   -2.277328   -6.673889    0.675842
  30 C   6.0000    0    12.011   -3.254524   -4.334125    0.079690
  31 C   6.0000    0    12.011   -3.664255   -2.536126    1.962084
  32 N   7.0000    0    14.007   -4.797429   -0.209193    1.153149
  33 O   8.0000    0    15.999   -4.479067    0.417535   -1.046058
  34 O   8.0000    0    15.999   -6.080024    0.989177    2.643821
  35 C   6.0000    0    12.011   -3.707019   12.365045   -2.477488
  36 N   7.0000    0    14.007   -2.222885   10.086942   -2.550790
  37 H   1.0000    0     1.008   -0.535454   10.097789   -1.676565
  38 H   1.0000    0     1.008   -4.149839   12.889501   -0.530956
  39 H   1.0000    0     1.008   -2.705483   13.925430   -3.385312
  40 H   1.0000    0     1.008   -5.454203   11.989141   -3.497373
  41 C   6.0000    0    12.011   -1.582589    1.409339   -5.521855
  42 O   8.0000    0    15.999    0.569677    0.730549   -5.117681
  43 C   6.0000    0    12.011   -3.563286   -0.195190   -6.791128
  44 H   1.0000    0     1.008   -2.764707   -2.024388   -7.269380
  45 H   1.0000    0     1.008   -5.143891   -0.437868   -5.500218
  46 H   1.0000    0     1.008   -4.241056    0.724275   -8.500479

      -----------------------------------------------------------      
     |                   =====================                   |     
     |                           x T B                           |     
     |                   =====================                   |     
     |                         S. Grimme                         |     
     |          Mulliken Center for Theoretical Chemistry        |     
     |                    University of Bonn                     |     
      -----------------------------------------------------------      

   * xtb version 6.7.1 (edcfbbe) compiled by 'albert@albert-system' on 2024-07-22

   xtb is free software: you can redistribute it and/or modify it under
   the terms of the GNU Lesser General Public License as published by
   the Free Software Foundation, either version 3 of the License, or
   (at your option) any later version.
   
   xtb is distributed in the hope that it will be useful,
   but WITHOUT ANY WARRANTY; without even the implied warranty of
   MERCHANTABILITY or FITNESS FOR A PARTICULAR PURPOSE.  See the
   GNU Lesser General Public License for more details.
   
   Cite this work as:
   * C. Bannwarth, E. Caldeweyher, S. Ehlert, A. Hansen, P. Pracht,
     J. Seibert, S. Spicher, S. Grimme, WIREs Comput. Mol. Sci., 2020, 11,
     e01493. DOI: 10.1002/wcms.1493
   
   for GFN2-xTB:
   * C. Bannwarth, S. Ehlert and S. Grimme., J. Chem. Theory Comput., 2019,
     15, 1652-1671. DOI: 10.1021/acs.jctc.8b01176
   for GFN1-xTB:
   * S. Grimme, C. Bannwarth, P. Shushkov, J. Chem. Theory Comput., 2017,
     13, 1989-2009. DOI: 10.1021/acs.jctc.7b00118
   for GFN0-xTB:
   * P. Pracht, E. Caldeweyher, S. Ehlert, S. Grimme, ChemRxiv, 2019, preprint.
     DOI: 10.26434/chemrxiv.8326202.v1
   for GFN-FF:
   * S. Spicher and S. Grimme, Angew. Chem. Int. Ed., 2020, 59, 15665-15673.
     DOI: 10.1002/anie.202004239
   
   for ALPB and GBSA implicit solvation:
   * S. Ehlert, M. Stahn, S. Spicher, S. Grimme, J. Chem. Theory Comput.,
     2021, 17, 4250-4261. DOI: 10.1021/acs.jctc.1c00471
   
   for ddCOSMO and CPCM-X implicit solvation:
   * M. Stahn, S. Ehlert, S. Grimme, J. Phys. Chem. A,
     2023, XX, XXXX-XXXX. DOI: 10.1021/acs.jpca.3c04382
   
   for DFT-D4:
   * E. Caldeweyher, C. Bannwarth and S. Grimme, J. Chem. Phys., 2017,
     147, 034112. DOI: 10.1063/1.4993215
   * E. Caldeweyher, S. Ehlert, A. Hansen, H. Neugebauer, S. Spicher,
     C. Bannwarth and S. Grimme, J. Chem. Phys., 2019, 150, 154122.
     DOI: 10.1063/1.5090222
   * E. Caldeweyher, J.-M. Mewes, S. Ehlert and S. Grimme, Phys. Chem. Chem. Phys.
     2020, 22, 8499-8512. DOI: 10.1039/D0CP00502A
   
   for sTDA-xTB:
   * S. Grimme and C. Bannwarth, J. Chem. Phys., 2016, 145, 054103.
     DOI: 10.1063/1.4959605
   
   in the mass-spec context:
   * V. Asgeirsson, C. Bauer and S. Grimme, Chem. Sci., 2017, 8, 4879.
     DOI: 10.1039/c7sc00601b
   * J. Koopman and S. Grimme, ACS Omega 2019, 4, 12, 15120-15133.
     DOI: 10.1021/acsomega.9b02011
   
   for metadynamics refer to:
   * S. Grimme, J. Chem. Theory Comput., 2019, 155, 2847-2862
     DOI: 10.1021/acs.jctc.9b00143
   
   for SPH calculations refer to:
   * S. Spicher and S. Grimme, J. Chem. Theory Comput., 2021, 17, 1701-1714
     DOI: 10.1021/acs.jctc.0c01306
   
   for ONIOM refer to:
   * C. Plett, A. Katbashev, S. Ehlert, S. Grimme, M. Bursch,
     Phys. Chem. Chem. Phys., 2023, 25, 17860-17868. DOI: 10.1039/D3CP02178E
   
   for DIPRO refer to:
   * J. Kohn, N. Gildemeister, S. Grimme, D. Fazzi, A. Hansen,
     J. Chem. Phys., 2023, just accepted.
   
   for PTB refer to:
   * S. Grimme, M. Mueller, A. Hansen, J. Chem. Phys., 2023, 158, 124111.
     DOI: 10.1063/5.0137838
   
   with help from (in alphabetical order)
   P. Atkinson, C. Bannwarth, F. Bohle, G. Brandenburg, E. Caldeweyher
   M. Checinski, S. Dohm, S. Ehlert, S. Ehrlich, I. Gerasimov, C. Hölzer
   A. Katbashev, J. Kohn, J. Koopman, C. Lavigne, S. Lehtola, F. März, M. Müller,
   F. Musil, H. Neugebauer, J. Pisarek, C. Plett, P. Pracht, F. Pultar,
   J. Seibert, P. Shushkov, S. Spicher, M. Stahn, M. Steiner, T. Strunk,
   J. Stückrath, T. Rose, and J. Unsleber
   
 * started run on 2025/07/16 at 15:48:04.129     
   ID    Z sym.   atoms
    1    1 H      1-13, 38-41, 45-47
    2    7 N      14, 33, 37
    3    6 C      15-17, 19-24, 26-32, 36, 42, 44
    4    8 O      18, 25, 34, 35, 43

           -------------------------------------------------
          |                Calculation Setup                |
           -------------------------------------------------

          program call               : /home/esp/bin/orca_6_1_0/otool_xtb /home/esp/scriptDevelopment/drFrankenstein/11_PCY_CHARMM/04_torsion_scanning/torsion_NH1-CT1-CG321-CG2R61/scans_PCY_conformer_26/PCY_conformer_26_opt/orca_opt_XTB.xyz --grad -c 0 -u 0 -P 1 --namespace /home/esp/scriptDevelopment/drFrankenstein/11_PCY_CHARMM/04_torsion_scanning/torsion_NH1-CT1-CG321-CG2R61/scans_PCY_conformer_26/PCY_conformer_26_opt/orca_opt --input /home/esp/scriptDevelopment/drFrankenstein/11_PCY_CHARMM/04_torsion_scanning/torsion_NH1-CT1-CG321-CG2R61/scans_PCY_conformer_26/PCY_conformer_26_opt/orca_opt_XTB.input.tmp --alpb WATER --acc 0.200000
          calculation namespace      : /home/esp/scriptDevelopment/drFrankenstein/11_PCY_CHARMM/04_torsion_scanning/torsion_NH1-CT1-CG321-CG2R61/scans_PCY_conformer_26/PCY_conformer_26_opt/orca_opt
          coordinate file            : /home/esp/scriptDevelopment/drFrankenstein/11_PCY_CHARMM/04_torsion_scanning/torsion_NH1-CT1-CG321-CG2R61/scans_PCY_conformer_26/PCY_conformer_26_opt/orca_opt_XTB.xyz
          omp threads                :                     1


           -------------------------------------------------
          |                 G F N 2 - x T B                 |
           -------------------------------------------------

        Reference                      10.1021/acs.jctc.8b01176
      * Hamiltonian:
        H0-scaling (s, p, d)           1.850000    2.230000    2.230000
        zeta-weighting                 0.500000
      * Dispersion:
        s8                             2.700000
        a1                             0.520000
        a2                             5.000000
        s9                             5.000000
      * Repulsion:
        kExp                           1.500000    1.000000
        rExp                           1.000000
      * Coulomb:
        alpha                          2.000000
        third order                    shell-resolved
        anisotropic                    true
        a3                             3.000000
        a5                             4.000000
        cn-shift                       1.200000
        cn-exp                         4.000000
        max-rad                        5.000000

      * Solvation model:               ALPB
        Solvent                        WATER
        Parameter file                 internal GFN2-xTB/ALPB
        Dielectric constant                8.0200E+01
        Reference state                gsolv [1 M gas/solution]
        Free energy shift                  1.0808E-03 Eh       6.7819E-01 kcal/mol
        Temperature                        2.9815E+02 K
        Density                            1.0000E+00 kg/L
        Solvent mass                       1.8000E+01 g/mol
        Interaction kernel             P16
        Born radius scaling (c1)           1.4744E+00
        Born radii integrator          GBOBC
        Born offset                        0.0000E+00 a0       0.0000E+00 AA
        H-bond correction              true
        Ion screening                  false
        Surface tension                    1.0000E-05 Eh       1.5569E+01 dyn/cm
        Grid points                               230 per atom

          ...................................................
          :                      SETUP                      :
          :.................................................:
          :  # basis functions                 128          :
          :  # atomic orbitals                 128          :
          :  # shells                           74          :
          :  # electrons                       141          :
          :  max. iterations                   250          :
          :  Hamiltonian                  GFN2-xTB          :
          :  restarted?                      false          :
          :  GBSA solvation                   true          :
          :  PC potential                    false          :
          :  electronic temp.          300.0000000     K    :
          :  accuracy                    0.2000000          :
          :  -> integral cutoff          0.3198970E+02      :
          :  -> integral neglect         0.2000000E-08      :
          :  -> SCF convergence          0.2000000E-06 Eh   :
          :  -> wf. convergence          0.2000000E-04 e    :
          :  Broyden damping             0.4000000          :
          :  net charge                          0          :
          :  unpaired electrons                  0          :
          ...................................................

 iter      E             dE          RMSdq      gap      omega  full diag
   1    -80.7342982 -0.807343E+02  0.483E+00    0.97       0.0  T
   2    -80.9359683 -0.201670E+00  0.252E+00    0.17       1.0  T
   3    -80.9379020 -0.193366E-02  0.120E+00    0.40       1.0  T
   4    -80.8276888  0.110213E+00  0.154E+00    0.37       1.0  T
   5    -80.9437815 -0.116093E+00  0.339E-01    0.49       1.0  T
   6    -80.9461456 -0.236410E-02  0.226E-01    0.34       1.0  T
   7    -80.9468017 -0.656022E-03  0.175E-01    0.27       1.0  T
   8    -80.9479309 -0.112921E-02  0.661E-02    0.15       1.0  T
   9    -80.9481072 -0.176298E-03  0.267E-02    0.16       1.0  T
  10    -80.9481340 -0.268444E-04  0.121E-02    0.17       1.2  T
  11    -80.9481376 -0.363346E-05  0.728E-03    0.16       2.0  T
  12    -80.9481395 -0.188624E-05  0.434E-03    0.17       3.4  T
  13    -80.9481404 -0.868672E-06  0.105E-03    0.16      13.9  T
  14    -80.9481404 -0.236623E-07  0.731E-04    0.16      19.9  T
  15    -80.9481404 -0.169001E-07  0.401E-04    0.16      36.4  T
  16    -80.9481404 -0.679968E-08  0.148E-04    0.16      98.7  T
  17    -80.9481404 -0.503647E-09  0.105E-04    0.16     138.7  T

   *** convergence criteria satisfied after 17 iterations ***

         #    Occupation            Energy/Eh            Energy/eV
      -------------------------------------------------------------
         1        2.0000           -0.7744104             -21.0728
       ...           ...                  ...                  ...
        65        2.0000           -0.4169637             -11.3462
        66        2.0000           -0.4140058             -11.2657
        67        2.0000           -0.4119231             -11.2090
        68        2.0000           -0.4046874             -11.0121
        69        2.0000           -0.4035707             -10.9817
        70        2.0000           -0.3974734             -10.8158
        71        0.9603           -0.3294732              -8.9654 (HOMO)
        72        0.0397           -0.3234208              -8.8007 (LUMO)
        73                         -0.2501147              -6.8060
        74                         -0.2379612              -6.4753
        75                         -0.2327083              -6.3323
        76                         -0.2297031              -6.2505
       ...                                ...                  ...
       128                          0.6524526              17.7541
      -------------------------------------------------------------
                  HL-Gap            0.0060524 Eh            0.1647 eV
             Fermi-level           -0.3449602 Eh           -9.3868 eV

 SCC (total)                   0 d,  0 h,  0 min,  0.105 sec
 SCC setup                      ...        0 min,  0.001 sec (  0.968%)
 Dispersion                     ...        0 min,  0.000 sec (  0.392%)
 classical contributions        ...        0 min,  0.000 sec (  0.058%)
 integral evaluation            ...        0 min,  0.006 sec (  5.772%)
 iterations                     ...        0 min,  0.071 sec ( 67.688%)
 molecular gradient             ...        0 min,  0.026 sec ( 24.462%)
 printout                       ...        0 min,  0.001 sec (  0.623%)

         :::::::::::::::::::::::::::::::::::::::::::::::::::::
         ::                     SUMMARY                     ::
         :::::::::::::::::::::::::::::::::::::::::::::::::::::
         :: total energy             -79.898310885094 Eh    ::
         :: total w/o Gsasa/hb       -79.895454015453 Eh    ::
         :: gradient norm              0.042153009670 Eh/a0 ::
         :: HOMO-LUMO gap              0.164693818136 eV    ::
         ::.................................................::
         :: SCC energy               -80.946346577530 Eh    ::
         :: -> isotropic ES            0.184076274830 Eh    ::
         :: -> anisotropic ES         -0.001866317212 Eh    ::
         :: -> anisotropic XC          0.021060365283 Eh    ::
         :: -> dispersion             -0.057865287622 Eh    ::
         :: -> Gsolv                  -0.032695287404 Eh    ::
         ::    -> Gelec               -0.029838417763 Eh    ::
         ::    -> Gsasa                0.002313651127 Eh    ::
         ::    -> Ghb                 -0.006251280466 Eh    ::
         ::    -> Gshift               0.001080759698 Eh    ::
         :: repulsion energy           1.048035692436 Eh    ::
         :: add. restraining           0.000000000000 Eh    ::
         :: total charge              -0.000000000000 e     ::
         :::::::::::::::::::::::::::::::::::::::::::::::::::::


Property printout bound to 'properties.out'

           -------------------------------------------------
          | TOTAL ENERGY              -79.898310885094 Eh   |
          | GRADIENT NORM               0.042153009670 Eh/α |
          | HOMO-LUMO GAP               0.164693818136 eV   |
           -------------------------------------------------

------------------------------------------------------------------------
 * finished run on 2025/07/16 at 15:48:04.284     
------------------------------------------------------------------------
 total:
 * wall-time:     0 d,  0 h,  0 min,  0.155 sec
 *  cpu-time:     0 d,  0 h,  0 min,  0.078 sec
 * ratio c/w:     0.502 speedup
 SCF:
 * wall-time:     0 d,  0 h,  0 min,  0.106 sec
 *  cpu-time:     0 d,  0 h,  0 min,  0.066 sec
 * ratio c/w:     0.626 speedup


-------------------------   --------------------
FINAL SINGLE POINT ENERGY       -79.898310885090
-------------------------   --------------------


-------------
DIPOLE MOMENT
-------------
                                X             Y             Z
Total Dipole Moment    :      1.07700      -0.57900       0.31400
                        -----------------------------------------
Magnitude (a.u.)       :      1.26244
Magnitude (Debye)      :      3.20888


------------------
CARTESIAN GRADIENT
------------------

   1   H   :   -0.000435864   -0.000496898    0.000417296
   2   H   :    0.000180272   -0.000387638    0.000478443
   3   H   :    0.000028392    0.000049339   -0.000187635
   4   H   :    0.000761367    0.001234597   -0.000045880
   5   H   :   -0.000251022   -0.000080305   -0.000337617
   6   H   :   -0.000138605    0.000448154   -0.000161629
   7   H   :    0.000190871   -0.000297242   -0.000022743
   8   H   :    0.000234923   -0.000075539   -0.000102440
   9   H   :    0.000261501   -0.000660423   -0.000354202
  10   H   :   -0.000064250    0.000081226   -0.000184647
  11   H   :    0.000238566    0.000100816   -0.000275862
  12   H   :   -0.000112170    0.001273738    0.000994610
  13   H   :    0.000328519   -0.000715694    0.000122235
  14   N   :   -0.001421396   -0.000696078   -0.000069132
  15   C   :   -0.000766857    0.001829412   -0.000324536
  16   C   :   -0.015919149   -0.007087194   -0.010929198
  17   C   :   -0.000720531   -0.002428051    0.000049808
  18   O   :    0.013954511    0.000465678    0.006759631
  19   C   :    0.000093198   -0.000137133    0.000661081
  20   C   :    0.000141492   -0.000530806    0.000169333
  21   C   :   -0.000149508   -0.000330839   -0.000156202
  22   C   :   -0.000667156   -0.001076999    0.001408088
  23   C   :   -0.000484908    0.000504999   -0.000030971
  24   C   :   -0.000026476    0.000008172   -0.000169877
  25   O   :   -0.001855848   -0.001030534   -0.001514880
  26   C   :    0.002912232    0.002780872   -0.000455877
  27   C   :    0.000077131    0.000355361   -0.000970143
  28   C   :   -0.000033631   -0.000276754   -0.001244824
  29   C   :   -0.000374611    0.001111329   -0.000099367
  30   C   :   -0.000176703    0.000611525    0.000901091
  31   C   :   -0.000507526    0.000819108    0.001469928
  32   C   :    0.002038017   -0.003828607    0.001264076
  33   N   :   -0.009012622    0.017926087   -0.003171191
  34   O   :    0.000189478   -0.005312509    0.007385584
  35   O   :    0.007457118   -0.009269452   -0.005417155
  36   C   :    0.000649390   -0.002179840   -0.000432877
  37   N   :    0.002154610    0.006087638    0.004032784
  38   H   :   -0.000701403    0.000067402   -0.000257585
  39   H   :   -0.000431556    0.000749808    0.000791457
  40   H   :    0.000192063    0.001303576   -0.000380781
  41   H   :    0.000322055   -0.000867100   -0.000145055
  42   C   :    0.013432450   -0.002079784    0.003608201
  43   O   :   -0.009246386    0.002866144   -0.002256870
  44   C   :   -0.001676468   -0.000348924    0.000382165
  45   H   :   -0.000112164   -0.000267321   -0.000268319
  46   H   :   -0.000207495   -0.000330814   -0.000040074
  47   H   :   -0.000343852    0.000117500   -0.000888237

Difference to translation invariance:
           :   -0.0000000000    0.0000000000    0.0000000000

Difference to rotation invariance:
           :    0.0000356538   -0.0000414077    0.0009452762

Norm of the Cartesian gradient     ...    0.0421530097
RMS gradient                       ...    0.0035499238
MAX gradient                       ...    0.0179260865
------------------------------------------------------------------------------
                         ORCA GEOMETRY RELAXATION STEP
------------------------------------------------------------------------------

Reading the OPT-File                    .... done
Getting information on internals        .... done
Copying old internal coords+grads       .... done
Making the new internal coordinates     .... (2022 redundants) done
Validating the new internal coordinates .... (2022 redundants) done
Calculating the B-matrix                .... done
Calculating the G,G- and P matrices     .... done
Transforming gradient to internals      .... done
Projecting the internal gradient        .... done
Number of atoms                         ....  47
Number of internal coordinates          .... 227
Current Energy                          ....   -79.898310885 Eh
Current gradient norm                   ....     0.042153010 Eh/bohr
Maximum allowed component of the step   ....  0.300
Current trust radius                    ....  0.300
Evaluating the initial hessian          ....  (Almloef) done
Projecting the Hessian                  .... done
Forming the augmented Hessian           .... done
Diagonalizing the augmented Hessian     .... done
Last element of RFO vector              ....  0.989789935
Lowest eigenvalues of augmented Hessian:
 -0.001482725  0.010242330  0.011826530  0.011959636  0.012273985
Length of the computed step             ....  0.144004091
The final length of the internal step   ....  0.144004091
Converting the step to Cartesian space:
 Initial RMS(Int)=    0.0095578872
Transforming coordinates:
 Iter   0:  RMS(Cart)=    0.1774323896 RMS(Int)=    0.5893936036
 Iter   5:  RMS(Cart)=    0.0000000767 RMS(Int)=    0.0000000266
done
Storing new coordinates                 .... done

                                .--------------------.
          ----------------------|Geometry convergence|-------------------------
          Item                value                   Tolerance       Converged
          ---------------------------------------------------------------------
          RMS gradient        0.0018695921            0.0001000000      NO
          MAX gradient        0.0154336728            0.0003000000      NO
          RMS step            0.0095578872            0.0020000000      NO
          MAX step            0.0434521294            0.0040000000      NO
          -------------------------------------------------------------------------
          ........................................................
          Max(Bonds)      0.0091      Max(Angles)    0.63
          Max(Dihed)        2.49      Max(Improp)    0.00
          ---------------------------------------------------------------------

The optimization has not yet converged - more geometry cycles are needed


    ---------------------------------------------------------------------------
                         Redundant Internal Coordinates
                            (Angstroem and degrees)

        Definition                    Value    dE/dq     Step     New-Value
    ----------------------------------------------------------------------------
     1. B(N  13,H  11)                1.0244 -0.000204 -0.0001    1.0244   
     2. B(C  14,N  13)                1.3562 -0.000417  0.0008    1.3570   
     3. B(C  15,C  14)                1.4550 -0.000507  0.0012    1.4562   
     4. B(C  16,H   7)                1.0910  0.000245 -0.0004    1.0906   
     5. B(C  16,H   3)                1.0919  0.001417 -0.0021    1.0899   
     6. B(C  16,C  14)                1.4881  0.000111 -0.0001    1.4879   
     7. B(O  17,C  15)                1.2342 -0.015434  0.0082    1.2424   
     8. B(O  17,H  11)                2.0156 -0.000907  0.0091    2.0246   
     9. B(C  18,C  16)                1.5154 -0.000442  0.0006    1.5160   
    10. B(C  19,C  18)                1.3905 -0.000266  0.0002    1.3907   
    11. B(C  19,H   5)                1.0799  0.000478 -0.0007    1.0792   
    12. B(C  20,C  19)                1.3809 -0.000340  0.0003    1.3812   
    13. B(C  20,H   2)                1.0794 -0.000131  0.0002    1.0796   
    14. B(C  21,C  20)                1.3901 -0.000255  0.0002    1.3903   
    15. B(C  22,C  21)                1.3892 -0.000173  0.0001    1.3894   
    16. B(C  22,H   6)                1.0797  0.000345 -0.0005    1.0792   
    17. B(C  23,C  22)                1.3821 -0.000435  0.0004    1.3824   
    18. B(C  23,C  18)                1.3874 -0.000657  0.0006    1.3879   
    19. B(C  23,H   9)                1.0784  0.000062 -0.0001    1.0783   
    20. B(O  24,C  21)                1.3839 -0.002422  0.0022    1.3861   
    21. B(C  25,O  24)                1.4260 -0.003778  0.0041    1.4300   
    22. B(C  25,H   4)                1.0933  0.000167 -0.0002    1.0930   
    23. B(C  25,H   0)                1.0917  0.000626 -0.0009    1.0908   
    24. B(C  26,C  25)                1.5104 -0.000567  0.0007    1.5111   
    25. B(C  27,C  26)                1.3903  0.000179 -0.0002    1.3901   
    26. B(C  27,H   1)                1.0796  0.000577 -0.0008    1.0788   
    27. B(C  28,C  27)                1.3834 -0.000788  0.0006    1.3840   
    28. B(C  28,H  12)                1.0793  0.000792 -0.0011    1.0782   
    29. B(C  29,C  28)                1.3865 -0.000569  0.0005    1.3870   
    30. B(C  29,H   8)                1.0787  0.000741 -0.0010    1.0777   
    31. B(C  30,C  29)                1.3784  0.000125 -0.0001    1.3783   
    32. B(C  30,H  10)                1.0789  0.000230 -0.0003    1.0786   
    33. B(C  31,C  30)                1.3945 -0.001380  0.0012    1.3957   
    34. B(C  31,C  26)                1.4018 -0.001355  0.0012    1.4030   
    35. B(N  32,C  31)                1.4349  0.003769 -0.0042    1.4308   
    36. B(O  33,N  32)                1.2218 -0.008612  0.0049    1.2267   
    37. B(O  34,N  32)                1.2186 -0.012482  0.0070    1.2256   
    38. B(N  36,C  35)                1.4393 -0.001245  0.0014    1.4407   
    39. B(N  36,C  15)                1.3604  0.006657 -0.0056    1.3548   
    40. B(H  37,N  36)                1.0057 -0.000737  0.0009    1.0066   
    41. B(H  38,C  35)                1.0922  0.001029 -0.0015    1.0907   
    42. B(H  39,C  35)                1.0925  0.001249 -0.0018    1.0906   
    43. B(H  40,C  35)                1.0889 -0.000048  0.0001    1.0890   
    44. B(C  41,N  13)                1.3736  0.000620 -0.0006    1.3730   
    45. B(O  42,C  41)                1.2132 -0.009928  0.0049    1.2181   
    46. B(C  43,C  41)                1.5069  0.002584 -0.0033    1.5035   
    47. B(H  44,C  43)                1.0861  0.000255 -0.0004    1.0857   
    48. B(H  45,O  33)                2.4258 -0.000188  0.0086    2.4344   
    49. B(H  45,C  43)                1.0875  0.000087 -0.0001    1.0874   
    50. B(H  46,C  43)                1.0879  0.000905 -0.0013    1.0866   
    51. A(H  11,N  13,C  41)          118.34  0.001054   -0.23    118.10   
    52. A(C  14,N  13,C  41)          131.41 -0.000756    0.05    131.46   
    53. A(H  11,N  13,C  14)          110.25 -0.000297    0.18    110.43   
    54. A(N  13,C  14,C  15)          111.66  0.000184    0.22    111.88   
    55. A(N  13,C  14,C  16)          121.25 -0.002387    0.24    121.49   
    56. A(C  15,C  14,C  16)          126.89  0.002194   -0.42    126.47   
    57. A(O  17,C  15,N  36)          122.06 -0.001205    0.09    122.15   
    58. A(C  14,C  15,O  17)          119.83  0.000215    0.12    119.94   
    59. A(C  14,C  15,N  36)          118.11  0.000989   -0.20    117.91   
    60. A(H   3,C  16,H   7)          108.77 -0.000266    0.02    108.80   
    61. A(H   3,C  16,C  14)          111.50  0.000724   -0.17    111.33   
    62. A(C  14,C  16,C  18)          108.47 -0.001262    0.21    108.68   
    63. A(H   3,C  16,C  18)          110.56  0.000711   -0.18    110.38   
    64. A(H   7,C  16,C  14)          109.10 -0.000024    0.07    109.18   
    65. A(H   7,C  16,C  18)          108.37  0.000100    0.05    108.42   
    66. A(C  16,C  18,C  23)          120.36 -0.000628    0.10    120.46   
    67. A(C  19,C  18,C  23)          119.17  0.000490   -0.06    119.11   
    68. A(C  16,C  18,C  19)          120.42  0.000120   -0.00    120.42   
    69. A(C  18,C  19,C  20)          120.73 -0.000167    0.02    120.74   
    70. A(H   5,C  19,C  18)          120.12 -0.000040    0.01    120.13   
    71. A(H   5,C  19,C  20)          119.14  0.000203   -0.03    119.11   
    72. A(H   2,C  20,C  21)          119.73  0.000259   -0.03    119.70   
    73. A(C  19,C  20,C  21)          119.76 -0.000227    0.03    119.79   
    74. A(H   2,C  20,C  19)          120.49 -0.000037    0.01    120.50   
    75. A(C  22,C  21,O  24)          119.22 -0.000540    0.08    119.30   
    76. A(C  20,C  21,O  24)          120.98  0.000348   -0.04    120.94   
    77. A(C  20,C  21,C  22)          119.79  0.000184   -0.02    119.77   
    78. A(C  21,C  22,C  23)          120.06  0.000034   -0.01    120.05   
    79. A(H   6,C  22,C  23)          120.80 -0.000110    0.02    120.82   
    80. A(H   6,C  22,C  21)          119.13  0.000073   -0.01    119.12   
    81. A(C  18,C  23,C  22)          120.47 -0.000317    0.05    120.51   
    82. A(H   9,C  23,C  22)          119.76  0.000334   -0.04    119.72   
    83. A(H   9,C  23,C  18)          119.73 -0.000027    0.02    119.74   
    84. A(C  21,O  24,C  25)          113.16 -0.004105    0.58    113.73   
    85. A(H   0,C  25,H   4)          109.55 -0.000049   -0.09    109.46   
    86. A(O  24,C  25,C  26)          108.56 -0.002170    0.38    108.93   
    87. A(H   4,C  25,C  26)          112.13 -0.000413    0.19    112.32   
    88. A(H   0,C  25,C  26)          110.31  0.000811   -0.20    110.11   
    89. A(H   4,C  25,O  24)          110.95  0.000783   -0.04    110.91   
    90. A(H   0,C  25,O  24)          105.11  0.001133   -0.26    104.85   
    91. A(C  27,C  26,C  31)          117.50  0.000318   -0.04    117.46   
    92. A(C  25,C  26,C  31)          123.73 -0.001666    0.25    123.98   
    93. A(C  25,C  26,C  27)          118.04  0.001321   -0.18    117.86   
    94. A(C  26,C  27,C  28)          121.83 -0.000225    0.03    121.85   
    95. A(H   1,C  27,C  28)          119.72 -0.000168    0.03    119.76   
    96. A(H   1,C  27,C  26)          118.44  0.000393   -0.06    118.39   
    97. A(C  27,C  28,C  29)          120.00 -0.000202    0.02    120.02   
    98. A(H  12,C  28,C  29)          120.17  0.000033   -0.00    120.17   
    99. A(H  12,C  28,C  27)          119.83  0.000168   -0.02    119.81   
   100. A(C  28,C  29,C  30)          119.44  0.000077   -0.01    119.43   
   101. A(H   8,C  29,C  30)          120.03  0.000241   -0.04    119.99   
   102. A(H   8,C  29,C  28)          120.53 -0.000318    0.05    120.58   
   103. A(C  29,C  30,C  31)          120.51  0.000014   -0.00    120.51   
   104. A(H  10,C  30,C  31)          118.39  0.000056   -0.01    118.38   
   105. A(H  10,C  30,C  29)          121.09 -0.000070    0.01    121.10   
   106. A(C  30,C  31,N  32)          115.94  0.000573   -0.08    115.86   
   107. A(C  26,C  31,N  32)          123.35 -0.000595    0.08    123.44   
   108. A(C  26,C  31,C  30)          120.69  0.000019    0.00    120.69   
   109. A(O  33,N  32,O  34)          123.51  0.005493   -0.63    122.88   
   110. A(C  31,N  32,O  34)          119.09 -0.003431    0.45    119.54   
   111. A(C  31,N  32,O  33)          117.35 -0.002099    0.28    117.63   
   112. A(N  36,C  35,H  38)          110.81  0.000926   -0.18    110.64   
   113. A(H  39,C  35,H  40)          109.39  0.000203   -0.00    109.39   
   114. A(H  38,C  35,H  40)          109.37  0.000225   -0.01    109.36   
   115. A(N  36,C  35,H  40)          107.27 -0.001708    0.32    107.60   
   116. A(H  38,C  35,H  39)          109.07 -0.000601    0.05    109.12   
   117. A(N  36,C  35,H  39)          110.89  0.000942   -0.18    110.71   
   118. A(C  35,N  36,H  37)          117.86  0.000918   -0.14    117.72   
   119. A(C  15,N  36,H  37)          120.17  0.001102   -0.16    120.01   
   120. A(C  15,N  36,C  35)          121.97 -0.002021    0.30    122.26   
   121. A(O  42,C  41,C  43)          124.38  0.000484   -0.07    124.32   
   122. A(N  13,C  41,C  43)          111.69 -0.001559    0.22    111.91   
   123. A(N  13,C  41,O  42)          123.91  0.001067   -0.13    123.77   
   124. A(H  45,C  43,H  46)          108.75 -0.000200    0.02    108.77   
   125. A(H  44,C  43,H  46)          109.46 -0.000464    0.11    109.57   
   126. A(C  41,C  43,H  46)          110.36  0.000225   -0.04    110.32   
   127. A(H  44,C  43,H  45)          109.90 -0.000379    0.06    109.96   
   128. A(C  41,C  43,H  45)          108.75  0.000668   -0.13    108.62   
   129. A(C  41,C  43,H  44)          109.60  0.000152   -0.02    109.58   
   130. D(C  16,C  14,N  13,C  41)    -10.04 -0.000565    1.18     -8.86   
   131. D(C  15,C  14,N  13,C  41)    174.67 -0.000596    0.71    175.38   
   132. D(C  16,C  14,N  13,H  11)    171.27 -0.000680    1.30    172.58   
   133. D(C  15,C  14,N  13,H  11)     -4.02 -0.000710    0.84     -3.18   
   134. D(N  36,C  15,C  14,N  13)    176.28 -0.000589    1.78    178.06   
   135. D(O  17,C  15,C  14,C  16)   -179.22 -0.000547    1.60   -177.62   
   136. D(N  36,C  15,C  14,C  16)      1.31 -0.000349    1.25      2.56   
   137. D(O  17,C  15,C  14,N  13)     -4.26 -0.000787    2.14     -2.12   
   138. D(H   7,C  16,C  14,C  15)   -143.14 -0.000184    0.21   -142.93   
   139. D(C  18,C  16,C  14,N  13)    -75.53  0.000543   -0.59    -76.12   
   140. D(H   3,C  16,C  14,C  15)    -22.98 -0.000076    0.18    -22.80   
   141. D(H   3,C  16,C  14,N  13)    162.50  0.000040   -0.40    162.10   
   142. D(H   7,C  16,C  14,N  13)     42.33 -0.000069   -0.37     41.96   
   143. D(C  19,C  18,C  16,H   3)     63.75  0.000006    0.54     64.30   
   144. D(C  19,C  18,C  16,H   7)   -177.12  0.000161    0.50   -176.62   
   145. D(C  19,C  18,C  16,C  14)    -58.79 -0.000516    0.73    -58.06   
   146. D(C  23,C  18,C  16,H   7)      0.24 -0.000299    1.51      1.75   
   147. D(C  23,C  18,C  16,H   3)   -118.89 -0.000454    1.55   -117.33   
   148. D(C  20,C  19,C  18,C  16)    176.35 -0.000529    1.07    177.41   
   149. D(H   5,C  19,C  18,C  23)   -179.51  0.000117   -0.25   -179.76   
   150. D(C  20,C  19,C  18,C  23)     -1.05 -0.000045    0.06     -0.98   
   151. D(H   5,C  19,C  18,C  16)     -2.12 -0.000367    0.75     -1.37   
   152. D(C  21,C  20,C  19,C  18)     -0.23 -0.000046    0.09     -0.15   
   153. D(C  21,C  20,C  19,H   5)    178.25 -0.000210    0.40    178.65   
   154. D(H   2,C  20,C  19,C  18)   -178.73  0.000199   -0.39   -179.12   
   155. D(H   2,C  20,C  19,H   5)     -0.25  0.000035   -0.08     -0.32   
   156. D(O  24,C  21,C  20,C  19)   -177.63  0.000600   -1.20   -178.83   
   157. D(O  24,C  21,C  20,H   2)      0.88  0.000352   -0.73      0.15   
   158. D(C  22,C  21,C  20,C  19)      1.38  0.000066   -0.11      1.27   
   159. D(C  22,C  21,C  20,H   2)    179.89 -0.000181    0.36    180.25   
   160. D(H   6,C  22,C  21,C  20)    179.77  0.000160   -0.33    179.44   
   161. D(C  23,C  22,C  21,O  24)    177.78 -0.000520    1.06    178.84   
   162. D(C  23,C  22,C  21,C  20)     -1.25 -0.000004   -0.01     -1.25   
   163. D(H   6,C  22,C  21,O  24)     -1.20 -0.000356    0.73     -0.47   
   164. D(C  18,C  23,C  22,C  21)     -0.04 -0.000084    0.15      0.11   
   165. D(C  18,C  23,C  22,H   6)    178.92 -0.000249    0.48    179.41   
   166. D(H   9,C  23,C  22,C  21)   -177.69  0.000216   -0.42   -178.11   
   167. D(H   9,C  23,C  22,H   6)      1.28  0.000051   -0.09      1.18   
   168. D(C  22,C  23,C  18,C  19)      1.18  0.000109   -0.18      1.00   
   169. D(C  22,C  23,C  18,C  16)   -176.21  0.000573   -1.18   -177.39   
   170. D(H   9,C  23,C  18,C  19)    178.83 -0.000182    0.39    179.22   
   171. D(H   9,C  23,C  18,C  16)      1.44  0.000282   -0.61      0.83   
   172. D(C  25,O  24,C  21,C  22)   -104.86 -0.000277    0.68   -104.18   
   173. D(C  25,O  24,C  21,C  20)     74.16 -0.000801    1.76     75.91   
   174. D(C  26,C  25,O  24,C  21)     66.47 -0.001470    2.49     68.96   
   175. D(H   4,C  25,O  24,C  21)    -57.16  0.000016    2.02    -55.14   
   176. D(H   0,C  25,O  24,C  21)   -175.50 -0.000985    2.30   -173.19   
   177. D(C  31,C  26,C  25,H   4)     36.26 -0.000245    0.30     36.56   
   178. D(C  31,C  26,C  25,H   0)    158.66 -0.000014    0.17    158.83   
   179. D(C  27,C  26,C  25,O  24)     83.27  0.000424    0.18     83.45   
   180. D(C  27,C  26,C  25,H   4)   -153.80 -0.000380    0.52   -153.28   
   181. D(C  27,C  26,C  25,H   0)    -31.40 -0.000150    0.39    -31.01   
   182. D(C  28,C  27,C  26,C  31)     -0.54 -0.000059    0.03     -0.52   
   183. D(C  28,C  27,C  26,C  25)   -171.11  0.000280   -0.21   -171.33   
   184. D(H   1,C  27,C  26,C  31)    178.69 -0.000091    0.04    178.74   
   185. D(H   1,C  27,C  26,C  25)      8.12  0.000248   -0.20      7.92   
   186. D(C  29,C  28,C  27,C  26)      1.63  0.000026    0.02      1.64   
   187. D(C  29,C  28,C  27,H   1)   -177.60  0.000055    0.00   -177.60   
   188. D(H  12,C  28,C  27,C  26)   -179.31 -0.000029    0.07   -179.24   
   189. D(H  12,C  28,C  27,H   1)      1.47 -0.000001    0.05      1.52   
   190. D(C  30,C  29,C  28,H  12)    179.73  0.000047   -0.05    179.68   
   191. D(H   8,C  29,C  28,C  27)    178.78 -0.000069    0.10    178.88   
   192. D(H   8,C  29,C  28,H  12)     -0.28 -0.000015    0.05     -0.23   
   193. D(C  30,C  29,C  28,C  27)     -1.20 -0.000008    0.00     -1.20   
   194. D(C  31,C  30,C  29,C  28)     -0.26  0.000012   -0.07     -0.32   
   195. D(C  31,C  30,C  29,H   8)    179.76  0.000073   -0.17    179.59   
   196. D(H  10,C  30,C  29,C  28)    179.86 -0.000124    0.24    180.10   
   197. D(H  10,C  30,C  29,H   8)     -0.12 -0.000063    0.14      0.02   
   198. D(N  32,C  31,C  30,C  29)   -177.17  0.000104   -0.16   -177.33   
   199. D(N  32,C  31,C  30,H  10)      2.71  0.000237   -0.46      2.25   
   200. D(C  26,C  31,C  30,C  29)      1.35 -0.000040    0.11      1.46   
   201. D(C  26,C  31,C  30,H  10)   -178.77  0.000092   -0.19   -178.96   
   202. D(N  32,C  31,C  26,C  27)    177.47 -0.000077    0.20    177.67   
   203. D(N  32,C  31,C  26,C  25)    -12.54 -0.000117    0.41    -12.13   
   204. D(C  30,C  31,C  26,C  27)     -0.94  0.000059   -0.09     -1.03   
   205. D(C  30,C  31,C  26,C  25)    169.05  0.000020    0.12    169.17   
   206. D(O  34,N  32,C  31,C  30)    151.62 -0.000354    0.99    152.61   
   207. D(O  34,N  32,C  31,C  26)    -26.86 -0.000216    0.71    -26.15   
   208. D(O  33,N  32,C  31,C  30)    -26.05  0.000502   -1.56    -27.61   
   209. D(O  33,N  32,C  31,C  26)    155.48  0.000639   -1.84    153.64   
   210. D(H  37,N  36,C  35,H  39)     61.09  0.000230   -0.05     61.04   
   211. D(H  37,N  36,C  35,H  38)    -60.19 -0.000273    0.13    -60.06   
   212. D(C  15,N  36,C  35,H  40)      1.12  0.000023   -0.07      1.05   
   213. D(C  15,N  36,C  35,H  39)   -118.27  0.000285   -0.17   -118.44   
   214. D(C  15,N  36,C  35,H  38)    120.45 -0.000218    0.02    120.46   
   215. D(H  37,N  36,C  15,O  17)   -179.77  0.000028   -0.07   -179.84   
   216. D(H  37,N  36,C  15,C  14)     -0.31 -0.000166    0.29     -0.02   
   217. D(C  35,N  36,C  15,O  17)     -0.42 -0.000030    0.05     -0.37   
   218. D(C  35,N  36,C  15,C  14)    179.03 -0.000224    0.41    179.45   
   219. D(C  43,C  41,N  13,C  14)    179.42 -0.000096    0.11    179.53   
   220. D(C  43,C  41,N  13,H  11)     -1.97  0.000009   -0.02     -1.99   
   221. D(O  42,C  41,N  13,C  14)     -2.13 -0.000399    0.77     -1.36   
   222. D(O  42,C  41,N  13,H  11)    176.47 -0.000294    0.64    177.12   
   223. D(H  46,C  43,C  41,N  13)     58.00  0.000114    0.29     58.29   
   224. D(H  45,C  43,C  41,O  42)    120.34  0.000108   -0.29    120.05   
   225. D(H  45,C  43,C  41,N  13)    -61.22 -0.000186    0.37    -60.85   
   226. D(H  44,C  43,C  41,O  42)      0.18  0.000072   -0.28     -0.10   
   227. D(H  44,C  43,C  41,N  13)    178.62 -0.000222    0.39    179.00   
    ----------------------------------------------------------------------------

Geometry step timings:
Preparation and reading OPT file:      0.000 s ( 0.197 %)
Internal coordinates            :      0.000 s ( 0.284 %)
B/P matrices and projection     :      0.005 s (40.467 %)
Hessian update/contruction      :      0.002 s (17.341 %)
Making the step                 :      0.004 s (30.898 %)
Converting the step to Cartesian:      0.001 s ( 4.185 %)
Storing new data                :      0.000 s ( 0.441 %)
Checking convergence            :      0.000 s ( 0.370 %)
Final printing                  :      0.001 s ( 5.817 %)
Total time                      :      0.013 s

Time for energy+gradient        :      0.162 s
Time for complete geometry iter :      0.176 s

         *************************************************************
         *                GEOMETRY OPTIMIZATION CYCLE   2            *
         *************************************************************
---------------------------------
CARTESIAN COORDINATES (ANGSTROEM)
---------------------------------
  H    -1.710671   -1.008987    4.445194
  H    -0.780623   -3.062493    3.826118
  H    -1.399232    2.425755    2.827693
  H     1.050095    3.931068   -1.180479
  H    -2.429572    0.123223    3.270279
  H    -0.989487    3.675439    0.755748
  H     1.242861   -0.650076    1.505300
  H     1.224050    2.369169   -2.000439
  H    -0.931460   -4.509817   -0.188004
  H     1.648578    0.596930   -0.587974
  H    -1.899087   -2.348681   -0.904539
  H    -2.301418    2.363091   -2.948757
  H    -0.406624   -4.868918    2.205863
  N    -1.353526    2.100253   -2.662691
  C    -0.747792    3.133359   -2.025643
  C    -1.586330    4.323541   -2.002735
  C     0.573334    2.968008   -1.362123
  O    -2.693871    4.312166   -2.565565
  C     0.364833    2.223570   -0.058537
  C    -0.487804    2.733211    0.914418
  C    -0.725142    2.033603    2.081159
  C    -0.108607    0.804719    2.287303
  C     0.763111    0.300672    1.330288
  C     0.995188    1.007442    0.165249
  O    -0.349950    0.072079    3.438482
  C    -1.618312   -0.588674    3.442895
  C    -1.597975   -1.697272    2.415433
  C    -1.047727   -2.917481    2.790981
  C    -0.823867   -3.931117    1.875678
  C    -1.118863   -3.733102    0.535138
  C    -1.657909   -2.530869    0.130843
  C    -1.913125   -1.520204    1.059024
  N    -2.527702   -0.337881    0.537679
  O    -2.321182   -0.062010   -0.640128
  O    -3.226304    0.353216    1.270165
  C    -1.861700    6.649406   -1.289021
  N    -1.115595    5.418949   -1.359351
  H    -0.212212    5.393120   -0.916155
  H    -2.059880    6.919997   -0.251164
  H    -1.314554    7.460254   -1.771323
  H    -2.806131    6.491874   -1.807732
  C    -0.905747    0.843024   -2.984451
  O     0.218014    0.441083   -2.740639
  C    -1.960657    0.036195   -3.688455
  H    -1.563076   -0.942236   -3.940247
  H    -2.815572   -0.069587   -3.024356
  H    -2.281767    0.542988   -4.594423

----------------------------
CARTESIAN COORDINATES (A.U.)
----------------------------
  NO LB    ZA    FRAG    MASS        X           Y           Z
   0 H   1.0000    0     1.008   -3.232700   -1.906709    8.400199
   1 H   1.0000    0     1.008   -1.475164   -5.787272    7.230315
   2 H   1.0000    0     1.008   -2.644165    4.584013    5.343566
   3 H   1.0000    0     1.008    1.984391    7.428641   -2.230782
   4 H   1.0000    0     1.008   -4.591225    0.232858    6.179932
   5 H   1.0000    0     1.008   -1.869859    6.945574    1.428157
   6 H   1.0000    0     1.008    2.348668   -1.228465    2.844605
   7 H   1.0000    0     1.008    2.313120    4.477081   -3.780282
   8 H   1.0000    0     1.008   -1.760205   -8.522318   -0.355276
   9 H   1.0000    0     1.008    3.115360    1.128035   -1.111111
  10 H   1.0000    0     1.008   -3.588755   -4.438363   -1.709331
  11 H   1.0000    0     1.008   -4.349050    4.465595   -5.572344
[...]
  27 C   6.0000    0    12.011   -2.221828   -5.421433    5.197914
  28 C   6.0000    0    12.011   -1.951821   -7.339568    3.439611
  29 C   6.0000    0    12.011   -2.480035   -6.884536    0.912101
  30 C   6.0000    0    12.011   -3.308771   -4.526882    0.182137
  31 C   6.0000    0    12.011   -3.633384   -2.603144    1.963661
  32 N   7.0000    0    14.007   -4.586052   -0.280571    1.019847
  33 O   8.0000    0    15.999   -4.251894    0.209447   -1.234368
  34 O   8.0000    0    15.999   -5.766433    1.158205    2.422553
  35 C   6.0000    0    12.011   -3.900531   12.247938   -2.198813
  36 N   7.0000    0    14.007   -2.328347   10.041014   -2.488291
  37 H   1.0000    0     1.008   -0.566185   10.126390   -1.773001
  38 H   1.0000    0     1.008   -4.189777   12.664987   -0.201613
  39 H   1.0000    0     1.008   -3.028425   13.872793   -3.115687
  40 H   1.0000    0     1.008   -5.715472   11.852798   -3.082486
  41 C   6.0000    0    12.011   -1.453349    1.491646   -5.731095
  42 O   8.0000    0    15.999    0.733222    0.865269   -5.342092
  43 C   6.0000    0    12.011   -3.364660   -0.131198   -7.051331
  44 H   1.0000    0     1.008   -2.487375   -1.893205   -7.628130
  45 H   1.0000    0     1.008   -4.902585   -0.514033   -5.741627
  46 H   1.0000    0     1.008   -4.121247    0.842710   -8.692949

      -----------------------------------------------------------      
     |                   =====================                   |     
     |                           x T B                           |     
     |                   =====================                   |     
     |                         S. Grimme                         |     
     |          Mulliken Center for Theoretical Chemistry        |     
     |                    University of Bonn                     |     
      -----------------------------------------------------------      

   * xtb version 6.7.1 (edcfbbe) compiled by 'albert@albert-system' on 2024-07-22

   xtb is free software: you can redistribute it and/or modify it under
   the terms of the GNU Lesser General Public License as published by
   the Free Software Foundation, either version 3 of the License, or
   (at your option) any later version.
   
   xtb is distributed in the hope that it will be useful,
   but WITHOUT ANY WARRANTY; without even the implied warranty of
   MERCHANTABILITY or FITNESS FOR A PARTICULAR PURPOSE.  See the
   GNU Lesser General Public License for more details.
   
   Cite this work as:
   * C. Bannwarth, E. Caldeweyher, S. Ehlert, A. Hansen, P. Pracht,
     J. Seibert, S. Spicher, S. Grimme, WIREs Comput. Mol. Sci., 2020, 11,
     e01493. DOI: 10.1002/wcms.1493
   
   for GFN2-xTB:
   * C. Bannwarth, S. Ehlert and S. Grimme., J. Chem. Theory Comput., 2019,
     15, 1652-1671. DOI: 10.1021/acs.jctc.8b01176
   for GFN1-xTB:
   * S. Grimme, C. Bannwarth, P. Shushkov, J. Chem. Theory Comput., 2017,
     13, 1989-2009. DOI: 10.1021/acs.jctc.7b00118
   for GFN0-xTB:
   * P. Pracht, E. Caldeweyher, S. Ehlert, S. Grimme, ChemRxiv, 2019, preprint.
     DOI: 10.26434/chemrxiv.8326202.v1
   for GFN-FF:
   * S. Spicher and S. Grimme, Angew. Chem. Int. Ed., 2020, 59, 15665-15673.
     DOI: 10.1002/anie.202004239
   
   for ALPB and GBSA implicit solvation:
   * S. Ehlert, M. Stahn, S. Spicher, S. Grimme, J. Chem. Theory Comput.,
     2021, 17, 4250-4261. DOI: 10.1021/acs.jctc.1c00471
   
   for ddCOSMO and CPCM-X implicit solvation:
   * M. Stahn, S. Ehlert, S. Grimme, J. Phys. Chem. A,
     2023, XX, XXXX-XXXX. DOI: 10.1021/acs.jpca.3c04382
   
   for DFT-D4:
   * E. Caldeweyher, C. Bannwarth and S. Grimme, J. Chem. Phys., 2017,
     147, 034112. DOI: 10.1063/1.4993215
   * E. Caldeweyher, S. Ehlert, A. Hansen, H. Neugebauer, S. Spicher,
     C. Bannwarth and S. Grimme, J. Chem. Phys., 2019, 150, 154122.
     DOI: 10.1063/1.5090222
   * E. Caldeweyher, J.-M. Mewes, S. Ehlert and S. Grimme, Phys. Chem. Chem. Phys.
     2020, 22, 8499-8512. DOI: 10.1039/D0CP00502A
   
   for sTDA-xTB:
   * S. Grimme and C. Bannwarth, J. Chem. Phys., 2016, 145, 054103.
     DOI: 10.1063/1.4959605
   
   in the mass-spec context:
   * V. Asgeirsson, C. Bauer and S. Grimme, Chem. Sci., 2017, 8, 4879.
     DOI: 10.1039/c7sc00601b
   * J. Koopman and S. Grimme, ACS Omega 2019, 4, 12, 15120-15133.
     DOI: 10.1021/acsomega.9b02011
   
   for metadynamics refer to:
   * S. Grimme, J. Chem. Theory Comput., 2019, 155, 2847-2862
     DOI: 10.1021/acs.jctc.9b00143
   
   for SPH calculations refer to:
   * S. Spicher and S. Grimme, J. Chem. Theory Comput., 2021, 17, 1701-1714
     DOI: 10.1021/acs.jctc.0c01306
   
   for ONIOM refer to:
   * C. Plett, A. Katbashev, S. Ehlert, S. Grimme, M. Bursch,
     Phys. Chem. Chem. Phys., 2023, 25, 17860-17868. DOI: 10.1039/D3CP02178E
   
   for DIPRO refer to:
   * J. Kohn, N. Gildemeister, S. Grimme, D. Fazzi, A. Hansen,
     J. Chem. Phys., 2023, just accepted.
   
   for PTB refer to:
   * S. Grimme, M. Mueller, A. Hansen, J. Chem. Phys., 2023, 158, 124111.
     DOI: 10.1063/5.0137838
   
   with help from (in alphabetical order)
   P. Atkinson, C. Bannwarth, F. Bohle, G. Brandenburg, E. Caldeweyher
   M. Checinski, S. Dohm, S. Ehlert, S. Ehrlich, I. Gerasimov, C. Hölzer
   A. Katbashev, J. Kohn, J. Koopman, C. Lavigne, S. Lehtola, F. März, M. Müller,
   F. Musil, H. Neugebauer, J. Pisarek, C. Plett, P. Pracht, F. Pultar,
   J. Seibert, P. Shushkov, S. Spicher, M. Stahn, M. Steiner, T. Strunk,
   J. Stückrath, T. Rose, and J. Unsleber
   
 * started run on 2025/07/16 at 15:48:06.651     
   ID    Z sym.   atoms
    1    1 H      1-13, 38-41, 45-47
    2    7 N      14, 33, 37
    3    6 C      15-17, 19-24, 26-32, 36, 42, 44
    4    8 O      18, 25, 34, 35, 43

           -------------------------------------------------
          |                Calculation Setup                |
           -------------------------------------------------

          program call               : /home/esp/bin/orca_6_1_0/otool_xtb /home/esp/scriptDevelopment/drFrankenstein/11_PCY_CHARMM/04_torsion_scanning/torsion_NH1-CT1-CG321-CG2R61/scans_PCY_conformer_26/PCY_conformer_26_opt/orca_opt_XTB.xyz --grad -c 0 -u 0 -P 1 --namespace /home/esp/scriptDevelopment/drFrankenstein/11_PCY_CHARMM/04_torsion_scanning/torsion_NH1-CT1-CG321-CG2R61/scans_PCY_conformer_26/PCY_conformer_26_opt/orca_opt --input /home/esp/scriptDevelopment/drFrankenstein/11_PCY_CHARMM/04_torsion_scanning/torsion_NH1-CT1-CG321-CG2R61/scans_PCY_conformer_26/PCY_conformer_26_opt/orca_opt_XTB.input.tmp --alpb WATER --acc 0.200000
          calculation namespace      : /home/esp/scriptDevelopment/drFrankenstein/11_PCY_CHARMM/04_torsion_scanning/torsion_NH1-CT1-CG321-CG2R61/scans_PCY_conformer_26/PCY_conformer_26_opt/orca_opt
          coordinate file            : /home/esp/scriptDevelopment/drFrankenstein/11_PCY_CHARMM/04_torsion_scanning/torsion_NH1-CT1-CG321-CG2R61/scans_PCY_conformer_26/PCY_conformer_26_opt/orca_opt_XTB.xyz
          omp threads                :                     1


           -------------------------------------------------
          |                 G F N 2 - x T B                 |
           -------------------------------------------------

        Reference                      10.1021/acs.jctc.8b01176
      * Hamiltonian:
        H0-scaling (s, p, d)           1.850000    2.230000    2.230000
        zeta-weighting                 0.500000
      * Dispersion:
        s8                             2.700000
        a1                             0.520000
        a2                             5.000000
        s9                             5.000000
      * Repulsion:
        kExp                           1.500000    1.000000
        rExp                           1.000000
      * Coulomb:
        alpha                          2.000000
        third order                    shell-resolved
        anisotropic                    true
        a3                             3.000000
        a5                             4.000000
        cn-shift                       1.200000
        cn-exp                         4.000000
        max-rad                        5.000000

      * Solvation model:               ALPB
        Solvent                        WATER
        Parameter file                 internal GFN2-xTB/ALPB
        Dielectric constant                8.0200E+01
        Reference state                gsolv [1 M gas/solution]
        Free energy shift                  1.0808E-03 Eh       6.7819E-01 kcal/mol
        Temperature                        2.9815E+02 K
        Density                            1.0000E+00 kg/L
        Solvent mass                       1.8000E+01 g/mol
        Interaction kernel             P16
        Born radius scaling (c1)           1.4744E+00
        Born radii integrator          GBOBC
        Born offset                        0.0000E+00 a0       0.0000E+00 AA
        H-bond correction              true
        Ion screening                  false
        Surface tension                    1.0000E-05 Eh       1.5569E+01 dyn/cm
        Grid points                               230 per atom
q/qsh data taken from xtbrestart
CAMM data taken from xtbrestart

          ...................................................
          :                      SETUP                      :
          :.................................................:
          :  # basis functions                 128          :
          :  # atomic orbitals                 128          :
          :  # shells                           74          :
          :  # electrons                       141          :
          :  max. iterations                   250          :
          :  Hamiltonian                  GFN2-xTB          :
          :  restarted?                       true          :
          :  GBSA solvation                   true          :
          :  PC potential                    false          :
          :  electronic temp.          300.0000000     K    :
          :  accuracy                    0.2000000          :
          :  -> integral cutoff          0.3198970E+02      :
          :  -> integral neglect         0.2000000E-08      :
          :  -> SCF convergence          0.2000000E-06 Eh   :
          :  -> wf. convergence          0.2000000E-04 e    :
          :  Broyden damping             0.4000000          :
          :  net charge                          0          :
          :  unpaired electrons                  0          :
          ...................................................

 iter      E             dE          RMSdq      gap      omega  full diag
   1    -80.9442414 -0.809442E+02  0.917E-03    0.15       0.0  T
   2    -80.9441967  0.447359E-04  0.294E-02    0.16       1.0  T
   3    -80.9442443 -0.476055E-04  0.329E-03    0.15       4.4  T
   4    -80.9442444 -0.156621E-06  0.821E-04    0.15      17.8  T
   5    -80.9442445 -0.178463E-07  0.215E-04    0.15      67.8  T
   6    -80.9442445 -0.154385E-08  0.988E-05    0.15     147.6  T
   7    -80.9442445 -0.747491E-10  0.342E-05    0.15     426.8  T

   *** convergence criteria satisfied after 7 iterations ***

         #    Occupation            Energy/Eh            Energy/eV
      -------------------------------------------------------------
         1        2.0000           -0.7668181             -20.8662
       ...           ...                  ...                  ...
        65        2.0000           -0.4173019             -11.3554
        66        2.0000           -0.4138244             -11.2607
        67        2.0000           -0.4110961             -11.1865
        68        2.0000           -0.4063738             -11.0580
        69        2.0000           -0.4046842             -11.0120
        70        2.0000           -0.3989039             -10.8547
        71        0.9479           -0.3313721              -9.0171 (HOMO)
        72        0.0521           -0.3258610              -8.8671 (LUMO)
        73                         -0.2506939              -6.8217
        74                         -0.2372050              -6.4547
        75                         -0.2328970              -6.3374
        76                         -0.2301880              -6.2637
       ...                                ...                  ...
       128                          0.6485600              17.6482
      -------------------------------------------------------------
                  HL-Gap            0.0055111 Eh            0.1500 eV
             Fermi-level           -0.3468773 Eh           -9.4390 eV

 SCC (total)                   0 d,  0 h,  0 min,  0.094 sec
 SCC setup                      ...        0 min,  0.001 sec (  1.504%)
 Dispersion                     ...        0 min,  0.001 sec (  0.634%)
 classical contributions        ...        0 min,  0.000 sec (  0.085%)
 integral evaluation            ...        0 min,  0.010 sec ( 10.765%)
 iterations                     ...        0 min,  0.053 sec ( 56.518%)
 molecular gradient             ...        0 min,  0.028 sec ( 29.602%)
 printout                       ...        0 min,  0.001 sec (  0.860%)

         :::::::::::::::::::::::::::::::::::::::::::::::::::::
         ::                     SUMMARY                     ::
         :::::::::::::::::::::::::::::::::::::::::::::::::::::
         :: total energy             -79.899503004277 Eh    ::
         :: total w/o Gsasa/hb       -79.896262521699 Eh    ::
         :: gradient norm              0.000364877127 Eh/a0 ::
         :: HOMO-LUMO gap              0.149964492538 eV    ::
         ::.................................................::
         :: SCC energy               -80.942517420546 Eh    ::
         :: -> isotropic ES            0.192507520627 Eh    ::
         :: -> anisotropic ES         -0.004564398895 Eh    ::
         :: -> anisotropic XC          0.021332565932 Eh    ::
         :: -> dispersion             -0.057513832033 Eh    ::
         :: -> Gsolv                  -0.036372149169 Eh    ::
         ::    -> Gelec               -0.033131666591 Eh    ::
         ::    -> Gsasa                0.002175115631 Eh    ::
         ::    -> Ghb                 -0.006496357907 Eh    ::
         ::    -> Gshift               0.001080759698 Eh    ::
         :: repulsion energy           1.043014416269 Eh    ::
         :: add. restraining           0.000000000000 Eh    ::
         :: total charge               0.000000000000 e     ::
         :::::::::::::::::::::::::::::::::::::::::::::::::::::


Property printout bound to 'properties.out'

           -------------------------------------------------
          | TOTAL ENERGY              -79.899503004277 Eh   |
          | GRADIENT NORM               0.000364877127 Eh/α |
          | HOMO-LUMO GAP               0.149964492538 eV   |
           -------------------------------------------------

------------------------------------------------------------------------
 * finished run on 2025/07/16 at 15:48:06.778     
------------------------------------------------------------------------
 total:
 * wall-time:     0 d,  0 h,  0 min,  0.127 sec
 *  cpu-time:     0 d,  0 h,  0 min,  0.075 sec
 * ratio c/w:     0.596 speedup
 SCF:
 * wall-time:     0 d,  0 h,  0 min,  0.094 sec
 *  cpu-time:     0 d,  0 h,  0 min,  0.060 sec
 * ratio c/w:     0.637 speedup


-------------------------   --------------------
FINAL SINGLE POINT ENERGY       -79.899503004280
-------------------------   --------------------


-------------
DIPOLE MOMENT
-------------
                                X             Y             Z
Total Dipole Moment    :      1.03200      -0.36200       0.25300
                        -----------------------------------------
Magnitude (a.u.)       :      1.12253
Magnitude (Debye)      :      2.85325

                                *** OPTIMIZATION RUN DONE ***


--------------------------------
SUGGESTED CITATIONS FOR THIS RUN
--------------------------------

Below you find a list of papers that are relevant to this ORCA run
We neither can nor want to force you to cite these papers, but we appreciate if you do
You receive ORCA, which is the product of decades of hard work by many enthusiastic individuals, for free
The only thing we kindly ask in return is that you cite our papers,
We deeply appreciate it, if you show your appreciation for ORCA by not just citing the generic ORCA reference.

Please note that relegating all ORCA citations to the supporting information does *not* help us.
SI sections are not indexed - citations you put there will not count into any citation statistics
But we need these citations in order to attract the funding resources that allow us to do what we are doing

Therefore, if you are a happy ORCA user, please consider citing a few of the papers listed below in the main body of your paper

In addition to the list printed below, the program has created the file /home/esp/scriptDevelopment/drFrankenstein/11_PCY_CHARMM/04_torsion_scanning/torsion_NH1-CT1-CG321-CG2R61/scans_PCY_conformer_26/PCY_conformer_26_opt/orca_opt.bibtex that contains the list in bibtex format
You can import this file easily into all common literature databanks and citation aid programs


List of essential papers. We consider these as the minimum necessary citations

  1. Bannwarth, C.; Ehlert, S.; Grimme, S.
     GFN2-xTB—An Accurate and Broadly Parametrized Self-Consistent Tight-Binding Quantum Chemical Method with Multipole Electrostatics and Density-Dependent Dispersion Contributions
     J. Chem. Theory Comput. 2019 15(3), 1652-1671
     doi.org/10.1021/acs.jctc.8b01176
  2. Neese, F.
     Software update: the ORCA program system, version 6.0
     WIRES Comput. Molec. Sci. 2025 15(1), e70019
     doi.org/10.1002/wcms.7019

List of papers to cite with high priority. The work reported in these papers was absolutely
necessary for this run to complete.
Our perspective: the developers of density functionals and basis sets usually get cited in chemistry papers
Good! But without the algorithms to do something with them, the functionals or basis sets would not do anything.
Hence, in our opinion, the algorithm design and method developments papers are equally worthy of getting cited

  1. Bannwarth, C.; Caldeweyher, E.; Ehlert, S.; Hansen, A.; Pracht, P.; Seibert, J.; Spicher, S.; Grimme, S.
     Extended tight-binding quantum chemistry methods
     WIRES Comput. Molec. Sci. 2020 11(2), e1493
     doi.org/10.1002/wcms.1493

List of suggested additional citations. These are papers that are important in the 'surrounding' of 
of this run, or papers that preceded the highly important papers. If you like your results we are grateful for a citation.

  1. Neese, F.
     The ORCA program system
     WIRES Comput. Molec. Sci. 2012 2(1), 73-78
     doi.org/10.1002/wcms.81
  2. Neese, F.
     Software update: the ORCA program system, version 4.0
     WIRES Comput. Molec. Sci. 2018 8(1), 1-6
     doi.org/10.1002/wcms.1327
  3. Neese, F.; Wennmohs, F.; Becker, U.; Riplinger, C.
     The ORCA quantum chemistry program package
     J. Chem. Phys. 2020 152(22), 224108
     doi.org/10.1063/5.0004608
  4. Neese, F.
     Software update: The ORCA program system—Version 5.0
     WIRES Comput. Molec. Sci. 2022 12(1), e1606
     doi.org/10.1002/wcms.1606

List of optional additional citations

  1. Neese, F.
     Approximate second-order SCF convergence for spin unrestricted wavefunctions
     Chem. Phys. Lett. 2000 325(1-3), 93-98
     doi.org/10.1016/s0009-2614(00)00662-x

Timings for individual modules:

Sum of individual times          ...        2.613 sec (=   0.044 min)
Geometry relaxation              ...        0.258 sec (=   0.004 min)   9.9 %
XTB module                       ...        2.355 sec (=   0.039 min)  90.1 %
                             ****ORCA TERMINATED NORMALLY****
TOTAL RUN TIME: 0 days 0 hours 0 minutes 2 seconds 743 msec
