47
Coordinates from ORCA-job /home/esp/scriptDevelopment/drFrankenstein/11_PCY_CHARMM/04_torsion_scanning/torsion_NH1-CT1-CG321-CG2R61/scans_PCY_conformer_1/PCY_conformer_1_forwards/orca_scan Relaxed Surface Scan Step 1 E -79.901020602740
  H      -0.299950     -0.198584      4.762324
  H      -0.749076     -2.496167      4.780303
  H       0.374426      2.398150      2.092264
  H       0.651701      1.309071     -3.005188
  H      -1.109135      0.920615      3.630380
  H       0.009019      3.066801     -0.244591
  H       0.493117     -1.698520      0.913648
  H      -1.003346      0.716501     -2.842445
  H      -3.337936     -4.334420      1.922273
  H       0.089013     -1.034913     -1.428955
  H      -3.561796     -2.157214      0.758584
  H      -0.647455      4.617103     -3.396500
  H      -1.947105     -4.479449      3.965958
  N      -0.122825      3.733737     -3.392784
  C      -0.775142      2.810785     -2.641748
  C      -2.010591      3.343093     -2.078221
  C      -0.275518      1.428074     -2.438676
  O      -2.312903      4.536254     -2.297289
  C      -0.008308      1.059247     -0.997524
  C       0.106251      2.019556      0.000583
  C       0.317125      1.651015      1.315336
  C       0.433120      0.306835      1.647332
  C       0.379918     -0.658635      0.647940
  C       0.156699     -0.279995     -0.661471
  O       0.595560     -0.081352      2.967687
  C      -0.617822     -0.051952      3.729849
  C      -1.508440     -1.185660      3.286744
  C      -1.386990     -2.419591      3.914040
  C      -2.051320     -3.540801      3.446023
  C      -2.832255     -3.461860      2.301908
  C      -2.959640     -2.254355      1.648592
  C      -2.319907     -1.117036      2.144727
  N      -2.549584      0.090303      1.433250
  O      -2.696687      0.018428      0.214081
  O      -2.628650      1.155256      2.042328
  C      -3.976448      2.965783     -0.680536
  N      -2.792958      2.513408     -1.367548
  H      -2.481340      1.579024     -1.135633
  H      -4.137566      4.013199     -0.928038
  H      -4.836727      2.374939     -0.994427
  H      -3.845958      2.859314      0.398515
  C       1.056799      3.681158     -4.090793
  O       1.758607      2.679620     -4.155557
  C       1.387961      4.979095     -4.768332
  H       0.602344      5.241633     -5.472437
  H       1.470847      5.774235     -4.031654
  H       2.329883      4.876294     -5.298324
>
47
Coordinates from ORCA-job /home/esp/scriptDevelopment/drFrankenstein/11_PCY_CHARMM/04_torsion_scanning/torsion_NH1-CT1-CG321-CG2R61/scans_PCY_conformer_1/PCY_conformer_1_forwards/orca_scan Relaxed Surface Scan Step 2 E -79.900670290260
  H      -0.343303     -0.243955      4.782436
  H      -0.828987     -2.531713      4.809487
  H       0.388653      2.364388      2.152294
  H       0.841166      1.445060     -2.911572
  H      -1.141332      0.884967      3.652125
  H       0.100248      3.079537     -0.183371
  H       0.429595     -1.714383      0.908157
  H      -0.779218      0.757961     -2.898937
  H      -3.422662     -4.346788      1.941008
  H       0.095829     -1.004228     -1.430756
  H      -3.609215     -2.171215      0.766785
  H      -0.686978      4.621246     -3.466186
  H      -2.048078     -4.501977      3.994637
  N      -0.126478      3.760060     -3.455127
  C      -0.691896      2.851663     -2.619636
  C      -1.929977      3.356894     -2.035390
  C      -0.129995      1.493792     -2.410771
  O      -2.266221      4.539619     -2.262656
  C       0.048368      1.085862     -0.969153
  C       0.160801      2.026561      0.048914
  C       0.328732      1.631848      1.361832
  C       0.408171      0.279648      1.673465
  C       0.348127     -0.667752      0.657654
  C       0.164460     -0.262614     -0.650402
  O       0.553118     -0.133388      2.988043
  C      -0.659526     -0.092425      3.750093
  C      -1.560808     -1.217185      3.305648
  C      -1.459857     -2.450026      3.938546
  C      -2.136077     -3.564084      3.470342
  C      -2.908109     -3.479404      2.320609
  C      -3.014921     -2.272974      1.661551
  C      -2.363577     -1.142472      2.157999
  N      -2.569532      0.065225      1.440692
  O      -2.708457     -0.008178      0.220470
  O      -2.635446      1.133699      2.046101
  C      -3.878039      2.943104     -0.624119
  N      -2.682042      2.517250     -1.306057
  H      -2.363419      1.580808     -1.093780
  H      -4.054767      3.989869     -0.863165
  H      -4.726319      2.341006     -0.949616
  H      -3.753081      2.827714      0.454448
  C       1.028990      3.734408     -4.193455
  O       1.779511      2.767544     -4.239711
  C       1.265775      5.013164     -4.943093
  H       0.443700      5.197318     -5.630312
  H       1.328378      5.847359     -4.248844
  H       2.193705      4.935204     -5.501227
>
47
Coordinates from ORCA-job /home/esp/scriptDevelopment/drFrankenstein/11_PCY_CHARMM/04_torsion_scanning/torsion_NH1-CT1-CG321-CG2R61/scans_PCY_conformer_1/PCY_conformer_1_forwards/orca_scan Relaxed Surface Scan Step 3 E -79.899853120490
  H      -0.402024     -0.302141      4.807321
  H      -0.908022     -2.583820      4.816681
  H       0.385247      2.339202      2.232585
  H       1.018165      1.597254     -2.785012
  H      -1.187224      0.841717      3.683038
  H       0.172105      3.103240     -0.097359
  H       0.388062     -1.715156      0.910364
  H      -0.543013      0.810977     -2.922749
  H      -3.477627     -4.363853      1.904913
  H       0.125235     -0.956253     -1.421152
  H      -3.634352     -2.179911      0.741220
  H      -0.737090      4.603342     -3.549882
  H      -2.130230     -4.540629      3.974541
  N      -0.141332      3.766830     -3.516701
  C      -0.619265      2.894492     -2.591363
  C      -1.857548      3.383529     -1.991784
  C       0.010551      1.570947     -2.357849
  O      -2.226370      4.551554     -2.244050
  C       0.106101      1.126292     -0.922150
  C       0.205834      2.045493      0.117877
  C       0.331557      1.623333      1.426591
  C       0.384742      0.263890      1.713460
  C       0.329848     -0.662647      0.678623
  C       0.186171     -0.229789     -0.625971
  O       0.508230     -0.176393      3.021216
  C      -0.709849     -0.138434      3.774244
  C      -1.612031     -1.255276      3.311789
  C      -1.527260     -2.492489      3.938371
  C      -2.205177     -3.599009      3.454911
  C      -2.962136     -3.502193      2.296146
  C      -3.052501     -2.291192      1.643014
  C      -2.399952     -1.168286      2.154690
  N      -2.586060      0.045190      1.442632
  O      -2.709164     -0.018639      0.219675
  O      -2.649730      1.110578      2.054628
  C      -3.781930      2.961190     -0.551864
  N      -2.577729      2.548588     -1.227318
  H      -2.256517      1.610589     -1.026610
  H      -3.967472      4.006625     -0.789777
  H      -4.623139      2.352013     -0.883256
  H      -3.661100      2.842907      0.526636
  C       0.991154      3.753157     -4.290058
  O       1.790962      2.825483     -4.299909
  C       1.135152      4.989309     -5.129316
  H       0.283335      5.083829     -5.798181
  H       1.174216      5.870558     -4.493963
  H       2.048186      4.922020     -5.712892
>
47
Coordinates from ORCA-job /home/esp/scriptDevelopment/drFrankenstein/11_PCY_CHARMM/04_torsion_scanning/torsion_NH1-CT1-CG321-CG2R61/scans_PCY_conformer_1/PCY_conformer_1_forwards/orca_scan Relaxed Surface Scan Step 4 E -79.898619973780
  H      -0.452207     -0.378657      4.831990
  H      -0.977940     -2.655658      4.804520
  H       0.375635      2.310646      2.328765
  H       1.191710      1.786753     -2.625621
  H      -1.224981      0.788910      3.723529
  H       0.236676      3.135666      0.012369
  H       0.359191     -1.708534      0.903488
  H      -0.274407      0.886282     -2.923662
  H      -3.532769     -4.371785      1.841702
  H       0.170512     -0.889104     -1.413143
  H      -3.661243     -2.169287      0.709309
  H      -0.794060      4.569405     -3.635084
  H      -2.206193     -4.590147      3.920917
  N      -0.158966      3.764631     -3.569122
  C      -0.552922      2.943440     -2.559473
  C      -1.796842      3.416132     -1.956772
  C       0.156679      1.668758     -2.285991
  O      -2.206651      4.560084     -2.251763
  C       0.169855      1.181399     -0.863633
  C       0.249403      2.072908      0.203174
  C       0.332922      1.616519      1.503407
  C       0.365721      0.249168      1.756505
  C       0.320826     -0.649706      0.697605
  C       0.218795     -0.182406     -0.599383
  O       0.469046     -0.225726      3.053660
  C      -0.752859     -0.194988      3.800117
  C      -1.657341     -1.299361      3.312884
  C      -1.587826     -2.546300      3.921740
  C      -2.269293     -3.640194      3.415071
  C      -3.014464     -3.520126      2.250718
  C      -3.089066     -2.298930      1.614854
  C      -2.433048     -1.189060      2.149870
  N      -2.599180      0.036670      1.454684
  O      -2.704986     -0.006204      0.228723
  O      -2.660681      1.093003      2.083103
  C      -3.698802      2.993861     -0.488619
  N      -2.478475      2.596041     -1.143470
  H      -2.151577      1.659711     -0.944804
  H      -3.886550      4.040419     -0.719408
  H      -4.531161      2.384177     -0.842064
  H      -3.596232      2.862872      0.589739
  C       0.948770      3.751453     -4.377055
  O       1.799994      2.871540     -4.340183
  C       0.996092      4.921017     -5.316763
  H       0.115606      4.919770     -5.954307
  H       1.013733      5.851552     -4.755048
  H       1.888562      4.851407     -5.931076
>
47
Coordinates from ORCA-job /home/esp/scriptDevelopment/drFrankenstein/11_PCY_CHARMM/04_torsion_scanning/torsion_NH1-CT1-CG321-CG2R61/scans_PCY_conformer_1/PCY_conformer_1_forwards/orca_scan Relaxed Surface Scan Step 5 E -79.897103682550
  H      -0.495723     -0.465446      4.849446
  H      -1.051922     -2.733487      4.779486
  H       0.352650      2.279322      2.434528
  H       1.351357      2.023017     -2.432949
  H      -1.254959      0.731823      3.763369
  H       0.286913      3.176710      0.141690
  H       0.358387     -1.693051      0.883262
  H       0.033147      0.989412     -2.900621
  H      -3.590199     -4.368870      1.757395
  H       0.246575     -0.801302     -1.410911
  H      -3.681682     -2.144944      0.662593
  H      -0.859456      4.516269     -3.717979
  H      -2.291275     -4.638228      3.847564
  N      -0.186704      3.747089     -3.616352
  C      -0.500254      2.990463     -2.529854
  C      -1.749329      3.447834     -1.925118
  C       0.305761      1.788652     -2.198761
  O      -2.203137      4.561267     -2.268964
  C       0.242134      1.251474     -0.797496
  C       0.289024      2.108699      0.299864
  C       0.330631      1.611638      1.586853
  C       0.354022      0.236522      1.797489
  C       0.331422     -0.628084      0.709981
  C       0.272528     -0.119892     -0.574822
  O       0.435395     -0.280517      3.079742
  C      -0.789787     -0.256648      3.820395
  C      -1.699521     -1.343678      3.304624
  C      -1.650282     -2.601740      3.891884
  C      -2.337830     -3.678843      3.357973
  C      -3.067825     -3.530118      2.187419
  C      -3.121944     -2.297113      1.572411
  C      -2.460608     -1.204392      2.135089
  N      -2.603656      0.035503      1.461354
  O      -2.688922      0.017410      0.232405
  O      -2.664939      1.080537      2.109536
  C      -3.623053      3.034550     -0.421103
  N      -2.388625      2.650219     -1.057499
  H      -2.053586      1.718007     -0.853556
  H      -3.824025      4.076301     -0.662055
  H      -4.443208      2.410721     -0.779487
  H      -3.530192      2.910583      0.658531
  C       0.894484      3.721762     -4.459652
  O       1.789495      2.890071     -4.381528
  C       0.851133      4.811647     -5.491022
  H      -0.052122      4.720569     -6.088937
  H       0.846733      5.784511     -5.005825
  H       1.721987      4.731788     -6.134390
>
47
Coordinates from ORCA-job /home/esp/scriptDevelopment/drFrankenstein/11_PCY_CHARMM/04_torsion_scanning/torsion_NH1-CT1-CG321-CG2R61/scans_PCY_conformer_1/PCY_conformer_1_forwards/orca_scan Relaxed Surface Scan Step 6 E -79.895489409890
  H      -0.535330     -0.566731      4.856481
  H      -1.121100     -2.824550      4.731647
  H       0.326986      2.242116      2.559493
  H       1.479259      2.342591     -2.188514
  H      -1.278039      0.665129      3.798150
  H       0.334621      3.235071      0.305689
  H       0.377587     -1.661103      0.842245
  H       0.394153      1.153140     -2.836272
  H      -3.650065     -4.359289      1.649339
  H       0.347649     -0.673386     -1.414616
  H      -3.704369     -2.109671      0.605040
  H      -0.932451      4.440348     -3.802740
  H      -2.373468     -4.692481      3.744091
  N      -0.217055      3.719606     -3.652893
  C      -0.464347      3.039506     -2.500265
  C      -1.724628      3.477266     -1.905295
  C       0.458806      1.951539     -2.085864
  O      -2.237547      4.539693     -2.319654
  C       0.326208      1.351682     -0.715543
  C       0.331935      2.161585      0.418915
  C       0.331243      1.610684      1.684283
  C       0.350306      0.227457      1.836951
  C       0.357772     -0.589673      0.713511
  C       0.344342     -0.027405     -0.550391
  O       0.406190     -0.345812      3.095939
  C      -0.821635     -0.328317      3.831622
  C      -1.738105     -1.393730      3.283010
  C      -1.709305     -2.665258      3.841793
  C      -2.404354     -3.721467      3.276689
  C      -3.121585     -3.537110      2.103250
  C      -3.154959     -2.289868      1.516087
  C      -2.486066     -1.218721      2.110071
  N      -2.605369      0.038245      1.464241
  O      -2.670618      0.050954      0.233439
  O      -2.664179      1.068063      2.136689
  C      -3.558459      3.088682     -0.348770
  N      -2.306629      2.722548     -0.961632
  H      -1.955211      1.800283     -0.741261
  H      -3.778490      4.122510     -0.606498
  H      -4.362178      2.444363     -0.709669
  H      -3.475542      2.978153      0.732578
  C       0.830640      3.652910     -4.535186
  O       1.758100      2.863288     -4.417189
  C       0.705368      4.639793     -5.659624
  H      -0.211178      4.455744     -6.214378
  H       0.672079      5.652268     -5.265195
  H       1.558026      4.537373     -6.323794
>
47
Coordinates from ORCA-job /home/esp/scriptDevelopment/drFrankenstein/11_PCY_CHARMM/04_torsion_scanning/torsion_NH1-CT1-CG321-CG2R61/scans_PCY_conformer_1/PCY_conformer_1_forwards/orca_scan Relaxed Surface Scan Step 7 E -79.894046351420
  H      -0.511774     -0.686880      4.837438
  H      -1.175210     -2.918724      4.682341
  H       0.342688      2.173210      2.680654
  H       1.530644      2.729707     -1.928075
  H      -1.241931      0.589680      3.824328
  H       0.409592      3.294404      0.490492
  H       0.389466     -1.624076      0.739616
  H       0.772931      1.393894     -2.736623
  H      -3.773824     -4.320388      1.594540
  H       0.427065     -0.506103     -1.456266
  H      -3.769489     -2.051237      0.591885
  H      -1.029578      4.304967     -3.915158
  H      -2.491059     -4.729923      3.671825
  N      -0.249188      3.674730     -3.696173
  C      -0.449072      3.076337     -2.489803
  C      -1.742017      3.461365     -1.933281
  C       0.595656      2.155015     -1.967225
  O      -2.352591      4.417205     -2.460321
  C       0.413580      1.474558     -0.640043
  C       0.395082      2.216389      0.540306
  C       0.359662      1.592860      1.770960
  C       0.363984      0.202764      1.842661
  C       0.384226     -0.546856      0.673242
  C       0.408869      0.088289     -0.555894
  O       0.402085     -0.447031      3.063524
  C      -0.809488     -0.414713      3.824218
  C      -1.761611     -1.443568      3.265684
  C      -1.765713     -2.725445      3.800818
  C      -2.496761     -3.749883      3.222613
  C      -3.217521     -3.522814      2.058962
  C      -3.218545     -2.264362      1.494915
  C      -2.513881     -1.224958      2.103233
  N      -2.601236      0.047969      1.483131
  O      -2.667893      0.087423      0.253396
  O      -2.630597      1.064350      2.176883
  C      -3.523161      3.101807     -0.311008
  N      -2.239710      2.785799     -0.885354
  H      -1.831019      1.904838     -0.605403
  H      -3.807126      4.102056     -0.631008
  H      -4.279130      2.386971     -0.642844
  H      -3.447345      3.057021      0.775000
  C       0.804186      3.615377     -4.571765
  O       1.799600      2.930417     -4.379131
  C       0.595925      4.471384     -5.787610
  H      -0.297332      4.152313     -6.318541
  H       0.469636      5.510319     -5.493672
  H       1.457939      4.381561     -6.441463
>
47
Coordinates from ORCA-job /home/esp/scriptDevelopment/drFrankenstein/11_PCY_CHARMM/04_torsion_scanning/torsion_NH1-CT1-CG321-CG2R61/scans_PCY_conformer_1/PCY_conformer_1_forwards/orca_scan Relaxed Surface Scan Step 8 E -79.896825593150
  H       0.186249     -1.157193      3.979264
  H      -1.065177     -2.675792      5.198785
  H       0.635961      1.424631      2.522621
  H       1.390115      3.773051     -1.414075
  H      -0.821405      0.186833      3.365692
  H       1.042869      3.130509      0.833754
  H      -0.063044     -1.458856     -0.551200
  H       1.715792      2.524196     -2.582684
  H      -4.892018     -4.046539      3.884880
  H       0.389012      0.264983     -2.261978
  H      -4.800796     -2.434745      2.000939
  H      -0.916016      4.333146     -4.226719
  H      -3.019354     -4.130782      5.500597
  N      -0.016901      4.111695     -3.781871
  C      -0.218084      3.321297     -2.690591
  C      -1.641946      3.094103     -2.473233
  C       0.953454      2.881884     -1.881450
  O      -2.448561      3.509947     -3.335199
  C       0.708364      1.833441     -0.835230
  C       0.792630      2.128961      0.518586
  C       0.553810      1.162046      1.480229
  C       0.208014     -0.126115      1.091800
  C       0.177819     -0.446303     -0.266779
  C       0.431108      0.520462     -1.214314
  O      -0.089051     -1.149611      1.943934
  C      -0.581374     -0.873878      3.252288
  C      -1.824773     -1.700374      3.465509
  C      -1.892381     -2.610681      4.509900
  C      -2.991750     -3.438237      4.674828
  C      -4.042730     -3.393139      3.771093
  C      -3.997619     -2.502011      2.718489
  C      -2.907006     -1.645351      2.575724
  N      -2.956938     -0.716398      1.499836
  O      -3.576756     -1.036716      0.486551
  O      -2.416857      0.379216      1.619311
  C      -3.440358      2.186643     -1.084953
  N      -2.055417      2.486235     -1.347368
  H      -1.379636      2.156568     -0.674659
  H      -4.034532      2.555797     -1.918463
  H      -3.579921      1.109046     -0.982183
  H      -3.757735      2.670653     -0.160992
  C       1.132722      4.570299     -4.367235
  O       2.251521      4.339042     -3.926424
  C       0.871037      5.389303     -5.599084
  H       0.357442      4.786468     -6.343809
  H       0.243608      6.242051     -5.353177
  H       1.815620      5.738236     -6.004943
>
47
Coordinates from ORCA-job /home/esp/scriptDevelopment/drFrankenstein/11_PCY_CHARMM/04_torsion_scanning/torsion_NH1-CT1-CG321-CG2R61/scans_PCY_conformer_1/PCY_conformer_1_forwards/orca_scan Relaxed Surface Scan Step 9 E -79.897718226090
  H       0.231315     -1.273150      3.912489
  H      -1.004973     -2.841447      5.087222
  H       0.663449      1.377971      2.591947
  H       1.164738      3.994891     -1.201249
  H      -0.781303      0.108349      3.398007
  H       1.050701      3.169381      0.991716
  H      -0.119550     -1.328537     -0.619789
  H       1.780932      2.833440     -2.347490
  H      -4.874845     -4.113831      3.800191
  H       0.316890      0.482723     -2.243007
  H      -4.814414     -2.409475      1.998400
  H      -0.889224      4.167809     -4.323196
  H      -2.964827     -4.294628      5.363318
  N      -0.001626      4.027996     -3.825428
  C      -0.223000      3.363716     -2.657511
  C      -1.647682      3.125029     -2.456417
  C       0.906050      3.070741     -1.732789
  O      -2.437302      3.404454     -3.385693
  C       0.674900      1.967949     -0.739315
  C       0.787035      2.188410      0.626449
  C       0.559509      1.172158      1.538817
  C       0.194479     -0.089722      1.087874
  C       0.136349     -0.335035     -0.285493
  C       0.380313      0.679575     -1.183597
  O      -0.098929     -1.155344      1.888107
  C      -0.553026     -0.946545      3.222508
  C      -1.797554     -1.773769      3.424741
  C      -1.848120     -2.735215      4.423232
  C      -2.950720     -3.561314      4.573193
  C      -4.022643     -3.462206      3.698760
  C      -3.994752     -2.519300      2.691693
  C      -2.900396     -1.664733      2.565856
  N      -2.967887     -0.681086      1.540942
  O      -3.612931     -0.944218      0.526950
  O      -2.417850      0.403611      1.704557
  C      -3.458544      2.338251     -1.012796
  N      -2.077772      2.662554     -1.268616
  H      -1.408442      2.412376     -0.555986
  H      -4.040709      2.606456     -1.892196
  H      -3.567355      1.270267     -0.814899
  H      -3.817617      2.894868     -0.147317
  C       1.154288      4.445128     -4.429239
  O       2.265295      4.296285     -3.935277
  C       0.910207      5.111003     -5.753331
  H       0.416971      4.420609     -6.432918
  H       0.270162      5.979334     -5.618811
  H       1.859417      5.422239     -6.178612
>
47
Coordinates from ORCA-job /home/esp/scriptDevelopment/drFrankenstein/11_PCY_CHARMM/04_torsion_scanning/torsion_NH1-CT1-CG321-CG2R61/scans_PCY_conformer_1/PCY_conformer_1_forwards/orca_scan Relaxed Surface Scan Step 10 E -79.898618445730
  H       0.279566     -1.372577      3.852442
  H      -0.951778     -2.992306      4.959854
  H       0.679125      1.360053      2.647235
  H       0.938897      4.175002     -1.025736
  H      -0.726847      0.042776      3.426075
  H       1.025564      3.223103      1.122065
  H      -0.131210     -1.209070     -0.669166
  H       1.775312      3.122553     -2.146336
  H      -4.855574     -4.156901      3.673101
  H       0.269275      0.674132     -2.217047
  H      -4.807019     -2.359663      1.963508
  H      -0.876248      4.029927     -4.364529
  H      -2.921636     -4.439653      5.190934
  N      -0.000749      3.953492     -3.832862
  C      -0.249861      3.425549     -2.603531
  C      -1.674278      3.180557     -2.413136
  C       0.834635      3.247109     -1.600966
  O      -2.449195      3.354635     -3.379144
  C       0.636735      2.095035     -0.654778
  C       0.766257      2.256351      0.717725
  C       0.562380      1.199112      1.587658
  C       0.199559     -0.044528      1.086925
  C       0.123468     -0.229642     -0.294694
  C       0.346588      0.825286     -1.150861
  O      -0.076464     -1.146918      1.843028
  C      -0.511454     -1.003326      3.192312
  C      -1.760749     -1.829219      3.370845
  C      -1.804644     -2.842513      4.317040
  C      -2.913136     -3.665050      4.441146
  C      -3.998361     -3.509036      3.591904
  C      -3.977274     -2.513935      2.636022
  C      -2.876196     -1.664727      2.537737
  N      -2.949121     -0.627692      1.566636
  O      -3.602567     -0.835240      0.545780
  O      -2.394856      0.444767      1.783818
  C      -3.490778      2.474401     -0.935340
  N      -2.117307      2.829545     -1.191193
  H      -1.450919      2.631234     -0.459522
  H      -4.072434      2.699443     -1.827130
  H      -3.575276      1.409605     -0.707523
  H      -3.870110      3.048008     -0.090475
  C       1.168069      4.289815     -4.462311
  O       2.270222      4.199310     -3.934813
  C       0.950933      4.788259     -5.862444
  H       0.469506      4.019560     -6.461763
  H       0.310104      5.666211     -5.848366
  H       1.908855      5.045184     -6.304126
>
47
Coordinates from ORCA-job /home/esp/scriptDevelopment/drFrankenstein/11_PCY_CHARMM/04_torsion_scanning/torsion_NH1-CT1-CG321-CG2R61/scans_PCY_conformer_1/PCY_conformer_1_forwards/orca_scan Relaxed Surface Scan Step 11 E -79.899192549660
  H       0.308428     -1.418137      3.796136
  H      -0.903064     -3.079546      4.858018
  H       0.673982      1.359262      2.677131
  H       0.762966      4.301771     -0.902464
  H      -0.708861      0.004380      3.422751
  H       0.989251      3.272194      1.209789
  H      -0.119849     -1.114882     -0.714866
  H       1.744238      3.348423     -2.003815
  H      -4.813356     -4.222646      3.571813
  H       0.251803      0.819131     -2.204435
  H      -4.790281     -2.370909      1.920953
  H      -0.864128      3.891030     -4.385972
  H      -2.863068     -4.544012      5.061102
  N       0.000644      3.865448     -3.832510
  C      -0.277721      3.486198     -2.556609
  C      -1.703560      3.255522     -2.365267
  C       0.770924      3.387558     -1.506652
  O      -2.470721      3.352511     -3.347528
  C       0.608206      2.195416     -0.600202
  C       0.741047      2.315153      0.776286
  C       0.555042      1.229009      1.613585
  C       0.203279     -0.002311      1.075817
  C       0.125449     -0.144943     -0.310563
  C       0.331815      0.938967     -1.134357
  O      -0.062053     -1.129988      1.797745
  C      -0.489167     -1.032262      3.153647
  C      -1.732707     -1.870385      3.314696
  C      -1.762653     -2.913884      4.228194
  C      -2.865695     -3.745915      4.336332
  C      -3.959985     -3.568310      3.503106
  C      -3.953010     -2.542810      2.579731
  C      -2.856981     -1.685271      2.497900
  N      -2.945968     -0.617257      1.562014
  O      -3.613021     -0.792982      0.544369
  O      -2.392076      0.449084      1.806483
  C      -3.522039      2.641087     -0.849160
  N      -2.151866      2.997878     -1.121000
  H      -1.484479      2.832344     -0.382065
  H      -4.103736      2.813498     -1.752660
  H      -3.596583      1.588154     -0.568386
  H      -3.909442      3.253609     -0.036128
  C       1.181400      4.141744     -4.469249
  O       2.272602      4.114036     -3.912399
  C       0.992048      4.488634     -5.918235
  H       0.521633      3.660645     -6.442691
  H       0.351788      5.362631     -6.008611
  H       1.958537      4.699154     -6.365775
>
47
Coordinates from ORCA-job /home/esp/scriptDevelopment/drFrankenstein/11_PCY_CHARMM/04_torsion_scanning/torsion_NH1-CT1-CG321-CG2R61/scans_PCY_conformer_1/PCY_conformer_1_forwards/orca_scan Relaxed Surface Scan Step 12 E -79.899381152620
  H       0.332841     -1.440891      3.757039
  H      -0.849059     -3.166996      4.736450
  H       0.644050      1.387458      2.707647
  H       0.619473      4.414854     -0.807051
  H      -0.698810     -0.019794      3.420271
  H       0.920913      3.340235      1.285959
  H      -0.069234     -1.026742     -0.744751
  H       1.695408      3.538269     -1.892236
  H      -4.751841     -4.300621      3.419548
  H       0.265818      0.947634     -2.187403
  H      -4.758090     -2.379641      1.849587
  H      -0.868470      3.757020     -4.378964
  H      -2.789902     -4.663079      4.884138
  N      -0.012579      3.773760     -3.811950
  C      -0.316843      3.556377     -2.505468
  C      -1.745291      3.355303     -2.306586
  C       0.706519      3.517007     -1.427160
  O      -2.510559      3.393116     -3.293623
  C       0.578771      2.295551     -0.550396
  C       0.698892      2.387460      0.829377
  C       0.535114      1.278432      1.640649
  C       0.215519      0.051757      1.072893
  C       0.150257     -0.060860     -0.316633
  C       0.335249      1.046292     -1.114449
  O      -0.028010     -1.098526      1.766504
  C      -0.465513     -1.045099      3.121615
  C      -1.699473     -1.903170      3.249438
  C      -1.713236     -2.985205      4.117450
  C      -2.805611     -3.834601      4.194466
  C      -3.906226     -3.634258      3.374854
  C      -3.915404     -2.570279      2.496226
  C      -2.829330     -1.697588      2.445059
  N      -2.936830     -0.593120      1.554480
  O      -3.618054     -0.730923      0.540636
  O      -2.384082      0.465312      1.832862
  C      -3.562807      2.835645     -0.754840
  N      -2.193794      3.182295     -1.046589
  H      -1.523513      3.033121     -0.306801
  H      -4.149919      2.980376     -1.659653
  H      -3.637623      1.791727     -0.441677
  H      -3.943525      3.474149      0.040803
  C       1.182317      3.964115     -4.454855
  O       2.262883      3.996220     -3.878166
  C       1.022617      4.132566     -5.938588
  H       0.546828      3.253170     -6.365388
  H       0.399316      4.998313     -6.148088
  H       1.999851      4.271880     -6.390638
>
47
Coordinates from ORCA-job /home/esp/scriptDevelopment/drFrankenstein/11_PCY_CHARMM/04_torsion_scanning/torsion_NH1-CT1-CG321-CG2R61/scans_PCY_conformer_1/PCY_conformer_1_forwards/orca_scan Relaxed Surface Scan Step 13 E -79.899554527500
  H       0.037852     -1.058679      3.792102
  H      -1.040399     -2.802984      4.904656
  H       0.378241      1.520752      2.724645
  H       0.810405      4.533066     -0.781794
  H      -1.166684      0.122785      3.193162
  H       0.799613      3.470662      1.330158
  H       0.095558     -0.921292     -0.769581