47
Coordinates from ORCA-job /home/esp/scriptDevelopment/drFrankenstein/11_PCY_CHARMM/04_torsion_scanning/torsion_NH1-CT1-CG321-CG2R61/scans_PCY_conformer_30/PCY_conformer_30_forwards/orca_scan Relaxed Surface Scan Step 1 E -79.896844517270
  H      -2.968841     -1.427672      1.481082
  H      -0.590901     -2.047393      4.130548
  H       0.998689     -1.126310      0.666045
  H       0.832956      1.298243     -3.404923
  H      -2.341848     -2.562118      2.710037
  H       1.461116      0.386102     -1.235659
  H      -2.775949     -2.131807     -1.045915
  H      -0.692098      0.765799     -4.199301
  H       1.092497      1.870141      4.362131
  H      -2.317879     -0.625321     -2.946367
  H      -0.265666      2.539915      2.414470
  H      -1.085187      3.787270     -1.453919
  H       0.900405     -0.443075      5.239002
  N      -0.431169      3.129181     -1.868331
  C      -0.975593      2.204334     -2.680908
  C      -2.437394      2.194741     -2.866416
  C      -0.219022      1.065909     -3.264156
  O      -2.951253      1.740371     -3.893975
  C      -0.405978     -0.006014     -2.205520
  C       0.536066     -0.168036     -1.197640
  C       0.280625     -1.010081     -0.131505
  C      -0.926427     -1.695063     -0.064146
  C      -1.848578     -1.582534     -1.098533
  C      -1.586697     -0.739927     -2.160002
  O      -1.215809     -2.464878      1.050441
  C      -2.070796     -1.793262      1.985272
  C      -1.304569     -0.685340      2.666416
  C      -0.528556     -1.034294      3.765061
  C       0.321206     -0.133724      4.384139
  C       0.429913      1.160428      3.894752
  C      -0.321046      1.536472      2.804912
  C      -1.194602      0.633366      2.183071
  N      -1.939016      1.143928      1.102770
  O      -1.553835      2.204593      0.568538
  O      -2.967801      0.580878      0.699895
  C      -4.599373      2.684201     -1.850247
  N      -3.154842      2.745476     -1.856945
  H      -2.722125      2.758791     -0.936054
  H      -4.946593      1.885777     -1.191015
  H      -4.996764      3.636832     -1.504502
  H      -4.939103      2.485564     -2.864974
  C       0.885831      3.310190     -1.467361
  O       1.813429      2.637524     -1.877649
  C       1.016305      4.433204     -0.485224
  H       0.321421      4.277489      0.336520
  H       2.033848      4.469743     -0.109306
  H       0.780031      5.378360     -0.968631
>
47
Coordinates from ORCA-job /home/esp/scriptDevelopment/drFrankenstein/11_PCY_CHARMM/04_torsion_scanning/torsion_NH1-CT1-CG321-CG2R61/scans_PCY_conformer_30/PCY_conformer_30_forwards/orca_scan Relaxed Surface Scan Step 2 E -79.896320670190
  H      -3.007127     -1.451072      1.454893
  H      -0.695614     -2.129969      4.146500
  H       0.921113     -1.109689      0.748696
  H       0.862086      1.301580     -3.327894
  H      -2.417587     -2.607773      2.681713
  H       1.404570      0.434332     -1.123350
  H      -2.740877     -2.235105     -1.125170
  H      -0.646714      0.775259     -4.157526
  H       1.044087      1.758381      4.444693
  H      -2.253407     -0.708648     -3.004039
  H      -0.250655      2.459946      2.462451
  H      -1.060373      3.925037     -1.617995
  H       0.791415     -0.555842      5.302445
  N      -0.404245      3.231057     -1.966513
  C      -0.959506      2.205537     -2.641287
  C      -2.424157      2.155699     -2.773621
  C      -0.191646      1.067617     -3.209958
  O      -2.966907      1.615734     -3.743013
  C      -0.400216     -0.025056     -2.176641
  C       0.502162     -0.157819     -1.128510
  C       0.233481     -1.015027     -0.078188
  C      -0.952296     -1.739391     -0.065075
  C      -1.830872     -1.655249     -1.138480
  C      -1.552163     -0.802202     -2.188424
  O      -1.270900     -2.517919      1.036979
  C      -2.122427     -1.837377      1.967980
  C      -1.350098     -0.748240      2.672897
  C      -0.608142     -1.116011      3.788749
  C       0.239585     -0.232374      4.434784
  C       0.382127      1.062399      3.956231
  C      -0.333834      1.456776      2.849072
  C      -1.205854      0.571219      2.201277
  N      -1.911148      1.098933      1.101863
  O      -1.481968      2.142910      0.571535
  O      -2.946997      0.563376      0.682193
  C      -4.555986      2.689023     -1.722112
  N      -3.113961      2.780848     -1.785727
  H      -2.650628      2.838397     -0.881616
  H      -4.862263      1.888066     -1.045054
  H      -4.958142      3.636298     -1.368546
  H      -4.930099      2.473262     -2.721026
  C       0.912513      3.439030     -1.579778
  O       1.827808      2.694018     -1.878693
  C       1.064709      4.684187     -0.760988
  H       0.422193      4.623649      0.114430
  H       2.099183      4.785432     -0.448072
  H       0.778807      5.554728     -1.346101
>
47
Coordinates from ORCA-job /home/esp/scriptDevelopment/drFrankenstein/11_PCY_CHARMM/04_torsion_scanning/torsion_NH1-CT1-CG321-CG2R61/scans_PCY_conformer_30/PCY_conformer_30_forwards/orca_scan Relaxed Surface Scan Step 3 E -79.895310425820
  H      -3.023476     -1.654380      1.515131
  H      -0.605420     -2.121728      4.172033
  H       0.944332     -1.352808      0.850005
  H       0.872992      1.327602     -3.023047
  H      -2.373267     -2.735410      2.780349
  H       1.425406      0.306431     -0.924308
  H      -2.724837     -2.352647     -1.079948
  H      -0.600474      0.816210     -3.920765
  H       1.113623      1.786882      4.089300
  H      -2.230533     -0.723230     -2.869507
  H      -0.279087      2.328106      2.119375
  H      -1.064641      4.074018     -1.657824
  H       0.912980     -0.451032      5.138385
  N      -0.414511      3.321113     -1.865211
  C      -0.971822      2.216268     -2.404958
  C      -2.422494      2.189004     -2.623233
  C      -0.180913      1.076505     -2.945418
  O      -2.927244      1.517003     -3.529464
  C      -0.383393     -0.085971     -1.995495
  C       0.527805     -0.291193     -0.968430
  C       0.258869     -1.209818      0.028399
  C      -0.934909     -1.920888      0.006194
  C      -1.809546     -1.780791     -1.063274
  C      -1.527860     -0.868758     -2.062780
  O      -1.281291     -2.711306      1.094501
  C      -2.115281     -1.998888      2.018640
  C      -1.341575     -0.856864      2.632362
  C      -0.546651     -1.136115      3.737441
  C       0.319663     -0.199050      4.274366
  C       0.432500      1.053832      3.689477
  C      -0.338575      1.359550      2.590013
  C      -1.233854      0.423941      2.060676
  N      -2.014344      0.869610      0.968943
  O      -1.579137      1.804055      0.274820
  O      -3.122736      0.365698      0.736785
  C      -4.599658      2.966943     -1.866964
  N      -3.153851      3.004177     -1.812734
  H      -2.769598      3.140190     -0.884354
  H      -5.002436      2.201311     -1.198765
  H      -4.988374      3.941758     -1.581921
  H      -4.895686      2.728850     -2.886800
  C       0.886648      3.537969     -1.437999
  O       1.773478      2.709386     -1.530992
  C       1.070445      4.910362     -0.862241
  H       0.406322      5.051786     -0.013348
  H       2.099910      5.027831     -0.538228
  H       0.841530      5.662456     -1.613206
>
47
Coordinates from ORCA-job /home/esp/scriptDevelopment/drFrankenstein/11_PCY_CHARMM/04_torsion_scanning/torsion_NH1-CT1-CG321-CG2R61/scans_PCY_conformer_30/PCY_conformer_30_forwards/orca_scan Relaxed Surface Scan Step 4 E -79.893951807300
  H      -3.075781     -1.594905      1.492114
  H      -0.681929     -2.118806      4.158096
  H       0.897189     -1.483632      0.901061
  H       0.925018      1.349899     -2.828761
  H      -2.484776     -2.672710      2.789456
  H       1.438863      0.206557     -0.823749
  H      -2.756873     -2.365351     -1.112480
  H      -0.495807      0.864680     -3.819990
  H       1.235460      1.692875      3.983823
  H      -2.194039     -0.718120     -2.863687
  H      -0.141975      2.265524      2.013557
  H      -1.094869      4.130290     -1.726532
  H       0.924367     -0.508380      5.083809
  N      -0.428482      3.374177     -1.858842
  C      -0.956713      2.206939     -2.284419
  C      -2.406143      2.155482     -2.542386
  C      -0.128239      1.086236     -2.813086
  O      -2.877621      1.458272     -3.445197
  C      -0.360917     -0.121438     -1.932009
  C       0.532708     -0.374829     -0.899896
  C       0.229502     -1.309793      0.070872
  C      -0.984479     -1.984424      0.019145
  C      -1.829717     -1.814496     -1.068976
  C      -1.510475     -0.890324     -2.046257
  O      -1.388532     -2.748943      1.106726
  C      -2.188048     -1.970387      2.009790
  C      -1.361925     -0.850562      2.596201
  C      -0.576387     -1.145991      3.703748
  C       0.339635     -0.244059      4.217615
  C       0.513455      0.988326      3.604970
  C      -0.249918      1.311624      2.505388
  C      -1.196382      0.413561      1.999033
  N      -1.968701      0.885926      0.914314
  O      -1.518942      1.821722      0.224800
  O      -3.092597      0.409358      0.678610
  C      -4.605640      2.935215     -1.855489
  N      -3.161554      2.987441     -1.777908
  H      -2.789164      3.176732     -0.854492
  H      -5.011889      2.192899     -1.163684
  H      -5.007953      3.916810     -1.616630
  H      -4.881121      2.653464     -2.869916
  C       0.854576      3.632495     -1.392804
  O       1.733158      2.792880     -1.351064
  C       1.022445      5.057003     -0.958362
  H       0.355351      5.273001     -0.127365
  H       2.049113      5.217082     -0.643728
  H       0.785780      5.728650     -1.779442
>
47
Coordinates from ORCA-job /home/esp/scriptDevelopment/drFrankenstein/11_PCY_CHARMM/04_torsion_scanning/torsion_NH1-CT1-CG321-CG2R61/scans_PCY_conformer_30/PCY_conformer_30_forwards/orca_scan Relaxed Surface Scan Step 5 E -79.892031991800
  H      -3.124689     -1.518538      1.464487
  H      -0.761445     -2.095103      4.141346
  H       0.855484     -1.660442      0.946911
  H       0.972845      1.371386     -2.585238
  H      -2.601518     -2.579924      2.805067
  H       1.470701      0.061093     -0.718468
  H      -2.803592     -2.358181     -1.127276
  H      -0.380292      0.924249     -3.680985
  H       1.378348      1.588260      3.852993
  H      -2.163676     -0.688730     -2.827858
  H       0.018259      2.192984      1.883895
  H      -1.135591      4.160904     -1.746392
  H       0.943776     -0.560111      5.016654
  N      -0.449571      3.414079     -1.818004
  C      -0.944570      2.197270     -2.130276
  C      -2.390159      2.130626     -2.465369
  C      -0.075971      1.095130     -2.642217
  O      -2.801276      1.441185     -3.399362
  C      -0.334776     -0.161057     -1.845400
  C       0.546709     -0.486857     -0.823113
  C       0.203803     -1.440821      0.115003
  C      -1.039456     -2.057510      0.040601
  C      -1.858386     -1.841713     -1.059198
  C      -1.497271     -0.901935     -2.006292
  O      -1.506845     -2.782539      1.130177
  C      -2.262629     -1.925098      2.001584
  C      -1.376342     -0.831624      2.549983
  C      -0.602373     -1.141803      3.661580
  C       0.369340     -0.283860      4.147314
  C       0.611285      0.918762      3.499862
  C      -0.143011      1.259621      2.399849
  C      -1.145934      0.407994      1.919746
  N      -1.907679      0.909991      0.844716
  O      -1.448169      1.862584      0.170095
  O      -3.043276      0.454496      0.590836
  C      -4.623082      2.897894     -1.877688
  N      -3.183855      2.951740     -1.740071
  H      -2.842130      3.174986     -0.812567
  H      -5.055531      2.169029     -1.188007
  H      -5.035339      3.883397     -1.675005
  H      -4.855442      2.595881     -2.897005
  C       0.820195      3.736814     -1.346693
  O       1.706708      2.918569     -1.206883
  C       0.956599      5.197415     -1.044538
  H       0.289288      5.471905     -0.231061
  H       1.980404      5.408694     -0.751310
  H       0.699164      5.786882     -1.920443
>
47
Coordinates from ORCA-job /home/esp/scriptDevelopment/drFrankenstein/11_PCY_CHARMM/04_torsion_scanning/torsion_NH1-CT1-CG321-CG2R61/scans_PCY_conformer_30/PCY_conformer_30_forwards/orca_scan Relaxed Surface Scan Step 6 E -79.910364548380
  H      -2.927761     -1.678607      1.005356
  H      -1.197499     -1.881089      4.150770
  H       1.073684     -1.575671      0.974276
  H       0.671264      1.457402     -2.733379
  H      -2.648392     -2.587268      2.520977
  H       1.497209      0.213138     -0.692648
  H      -2.321948     -2.858778     -1.264380
  H      -0.895452      0.992601     -3.460864
  H       0.861652      1.850618      3.979898
  H      -1.888144     -1.092319     -2.937021
  H      -0.007570      2.213938      1.724253
  H      -1.052232      4.156288     -1.879111
  H       0.223485     -0.195328      5.234107
  N      -0.453807      3.369331     -1.672526
  C      -1.070023      2.064800     -1.616335
  C      -2.562527      2.189677     -2.029719
  C      -0.321924      1.056017     -2.536008
  O      -2.987060      1.702911     -3.064812
  C      -0.226910     -0.273051     -1.860911
  C       0.682867     -0.482152     -0.832317
  C       0.444671     -1.473431      0.103296
  C      -0.710737     -2.239245     -0.000718
  C      -1.471970     -2.201554     -1.163815
  C      -1.225941     -1.213929     -2.093262
  O      -1.225950     -2.873170      1.123242
  C      -2.178565     -1.985968      1.742037
  C      -1.472283     -0.797459      2.350037
  C      -0.961957     -0.966167      3.629318
  C      -0.147703     -0.025598      4.236785
  C       0.205689      1.119291      3.536257
  C      -0.284929      1.328184      2.269034
  C      -1.150099      0.398454      1.657317
  N      -1.646011      0.717387      0.417535
  O      -0.981494      1.790587     -0.196624
  O      -2.659486      0.241036     -0.151461
  C      -4.695657      3.157536     -1.342793
  N      -3.270663      2.955419     -1.199047
  H      -2.856650      3.232329     -0.319561
  H      -5.241732      2.557593     -0.614274
  H      -4.927336      4.210856     -1.201921
  H      -4.979002      2.843092     -2.344911
  C       0.833185      3.632310     -1.306907
  O       1.619572      2.769789     -0.962831
  C       1.177502      5.095536     -1.379686
  H       0.600614      5.646613     -0.641939
  H       2.235509      5.220810     -1.170922
  H       0.951542      5.485212     -2.367815
>
47
Coordinates from ORCA-job /home/esp/scriptDevelopment/drFrankenstein/11_PCY_CHARMM/04_torsion_scanning/torsion_NH1-CT1-CG321-CG2R61/scans_PCY_conformer_30/PCY_conformer_30_forwards/orca_scan Relaxed Surface Scan Step 7 E -79.912423193910
  H      -3.033979     -1.529110      1.066546
  H      -1.206676     -1.907426      4.142565
  H       0.962035     -1.757369      0.994369
  H       0.842626      1.449441     -2.489715
  H      -2.775346     -2.474041      2.563381
  H       1.536056      0.033991     -0.620865
  H      -2.525014     -2.686439     -1.278675
  H      -0.636109      1.075186     -3.429349
  H       1.098467      1.677283      3.948737
  H      -1.935256     -0.924856     -2.909092
  H       0.177964      2.136138      1.729090
  H      -1.108951      4.140660     -1.965120
  H       0.366152     -0.341500      5.195166
  N      -0.472511      3.406999     -1.688903
  C      -1.007389      2.070670     -1.574059
  C      -2.493594      2.105507     -2.025708
  C      -0.179617      1.077925     -2.439594
  O      -2.869253      1.552715     -3.046233
  C      -0.217646     -0.274916     -1.807232
  C       0.665757     -0.585077     -0.780538
  C       0.345503     -1.578234      0.126946
  C      -0.870308     -2.240220      0.002160
  C      -1.622503     -2.107076     -1.160156
  C      -1.289382     -1.123190     -2.067418
  O      -1.433213     -2.858017      1.112147
  C      -2.286525     -1.902989      1.773411
  C      -1.469382     -0.779071      2.367774
  C      -0.926732     -1.002975      3.624816
  C      -0.027947     -0.130063      4.214726
  C       0.378479      1.000035      3.518742
  C      -0.140247      1.263163      2.272928
  C      -1.087400      0.403521      1.680990
  N      -1.601090      0.771659      0.464042
  O      -0.924865      1.838078     -0.149573
  O      -2.648007      0.344107     -0.084050
  C      -4.678334      3.030959     -1.455845
  N      -3.250772      2.898604     -1.264333
  H      -2.878955      3.222230     -0.382014
  H      -5.219741      2.431152     -0.723516
  H      -4.959179      4.077085     -1.358012
  H      -4.916659      2.670793     -2.454263
  C       0.780282      3.769233     -1.291381
  O       1.598779      2.976590     -0.863107
  C       1.043697      5.243033     -1.443642
  H       0.409625      5.802580     -0.761237
  H       2.084417      5.442913     -1.207953
  H       0.831771      5.558289     -2.460972
>
47
Coordinates from ORCA-job /home/esp/scriptDevelopment/drFrankenstein/11_PCY_CHARMM/04_torsion_scanning/torsion_NH1-CT1-CG321-CG2R61/scans_PCY_conformer_30/PCY_conformer_30_forwards/orca_scan Relaxed Surface Scan Step 8 E -79.912879110610
  H      -3.108503     -1.405384      1.110807
  H      -1.215502     -1.958265      4.122885
  H       0.856168     -1.908543      1.015244
  H       0.971721      1.439862     -2.245599
  H      -2.875648     -2.385742      2.588563
  H       1.553072     -0.116700     -0.545076
  H      -2.657807     -2.556320     -1.311784
  H      -0.406312      1.151742     -3.355528
  H       1.261361      1.511846      3.949985
  H      -1.937147     -0.807754     -2.899882
  H       0.307254      2.070005      1.764855
  H      -1.164118      4.107465     -2.052628
  H       0.463553     -0.500854      5.165557
  N      -0.493909      3.435658     -1.708450
  C      -0.950061      2.079046     -1.512159
  C      -2.428132      2.050949     -1.997742
  C      -0.058570      1.097298     -2.323629
  O      -2.760893      1.472023     -3.018140
  C      -0.205642     -0.277385     -1.754810
  C       0.645344     -0.672379     -0.727762
  C       0.258570     -1.666696      0.149917
  C      -0.997521     -2.242825      0.000168
  C      -1.723054     -2.036941     -1.168359
  C      -1.317715     -1.057484     -2.052686
  O      -1.606494     -2.842783      1.095574
  C      -2.369774     -1.838363      1.792449
  C      -1.466417     -0.777322      2.380966
  C      -0.902918     -1.057676      3.617156
  C       0.054844     -0.245455      4.201682
  C       0.498453      0.881328      3.522998
  C      -0.037827      1.200099      2.297780
  C      -1.039518      0.400858      1.711518
  N      -1.559907      0.818141      0.515252
  O      -0.876842      1.889930     -0.086074
  O      -2.621075      0.422392     -0.029769
  C      -4.644518      2.958134     -1.530994
  N      -3.221796      2.860197     -1.289360
  H      -2.888918      3.205782     -0.399908
  H      -5.198618      2.358720     -0.807831
  H      -4.949709      3.999557     -1.460111
  H      -4.840546      2.576972     -2.530826
  C       0.724787      3.899022     -1.310158
  O       1.571555      3.188274     -0.800045
  C       0.912411      5.368770     -1.572013
  H       0.227977      5.943041     -0.953489
  H       1.933012      5.645188     -1.326115
  H       0.714357      5.590545     -2.616448
>
47
Coordinates from ORCA-job /home/esp/scriptDevelopment/drFrankenstein/11_PCY_CHARMM/04_torsion_scanning/torsion_NH1-CT1-CG321-CG2R61/scans_PCY_conformer_30/PCY_conformer_30_forwards/orca_scan Relaxed Surface Scan Step 9 E -79.910953700020
  H      -3.165066     -1.295629      1.146250
  H      -1.213863     -2.018772      4.087535
  H       0.753924     -2.036352      1.034936
  H       1.069643      1.432248     -1.984471
  H      -2.956795     -2.306621      2.606395
  H       1.555906     -0.244922     -0.465475
  H      -2.751975     -2.448047     -1.355549
  H      -0.182636      1.228135     -3.248945
  H       1.386035      1.362708      3.954463
  H      -1.917193     -0.715219     -2.898308
  H       0.400258      2.021624      1.809531
  H      -1.208426      4.066277     -2.144049
  H       0.547292     -0.659047      5.126024
  N      -0.514244      3.459965     -1.733128
  C      -0.902239      2.097902     -1.442583
  C      -2.369131      2.023044     -1.964178
  C       0.047261      1.119341     -2.187860
  O      -2.658522      1.448242     -2.999808
  C      -0.193843     -0.274850     -1.701390
  C       0.622101     -0.745322     -0.674670
  C       0.178455     -1.741329      0.171221
  C      -1.105963     -2.242419     -0.004659
  C      -1.796606     -1.977682     -1.182552
  C      -1.328613     -1.002047     -2.041701
  O      -1.758537     -2.822512      1.076141
  C      -2.437620     -1.780432      1.804415
  C      -1.462238     -0.779227      2.386723
  C      -0.878791     -1.116716      3.599056
  C       0.124248     -0.358894      4.181418
  C       0.591503      0.772847      3.527081
  C       0.038554      1.147798      2.325418
  C      -1.003409      0.401193      1.740383
  N      -1.529458      0.865320      0.566195
  O      -0.852551      1.956605     -0.014618
  O      -2.594254      0.486556      0.015913
  C      -4.613491      2.897940     -1.582250
  N      -3.198159      2.830251     -1.291621
  H      -2.906256      3.175253     -0.387725
  H      -5.178936      2.277040     -0.886343
  H      -4.944619      3.931231     -1.510126
  H      -4.765032      2.524843     -2.592819
  C       0.670233      4.012323     -1.344542
  O       1.531757      3.383896     -0.756470
  C       0.801141      5.463016     -1.720875
  H       0.078659      6.053937     -1.164451
  H       1.802975      5.803625     -1.478436
  H       0.617553      5.590848     -2.783518
>
47
Coordinates from ORCA-job /home/esp/scriptDevelopment/drFrankenstein/11_PCY_CHARMM/04_torsion_scanning/torsion_NH1-CT1-CG321-CG2R61/scans_PCY_conformer_30/PCY_conformer_30_forwards/orca_scan Relaxed Surface Scan Step 10 E -79.906210868480
  H      -3.209310     -1.202258      1.180529
  H      -1.195305     -2.083425      4.038977
  H       0.661859     -2.157024      1.045782
  H       1.136552      1.425181     -1.701865
  H      -3.015708     -2.240059      2.623155
  H       1.555329     -0.363824     -0.390206
  H      -2.823800     -2.347165     -1.399512
  H       0.038720      1.302720     -3.107169
  H       1.486204      1.235776      3.949940
  H      -1.889130     -0.629845     -2.892486
  H       0.460417      1.992725      1.854394
  H      -1.246033      4.023825     -2.218056
  H       0.631030     -0.807655      5.070267
  N      -0.532576      3.477710     -1.759310
  C      -0.866025      2.125358     -1.368609
  C      -2.319203      2.012455     -1.930459
  C       0.138475      1.143364     -2.031014
  O      -2.562971      1.457633     -2.988360
  C      -0.180510     -0.268091     -1.645274
  C       0.601415     -0.812405     -0.624753
  C       0.108152     -1.811245      0.186917
  C      -1.198715     -2.240955     -0.012068
  C      -1.853076     -1.922279     -1.197126
  C      -1.330055     -0.948516     -2.028268
  O      -1.890260     -2.799912      1.055488
  C      -2.490769     -1.731115      1.813639
  C      -1.455041     -0.783588      2.385840
  C      -0.848230     -1.175553      3.569916
  C       0.190621     -0.464154      4.148639
  C       0.667628      0.679622      3.522771
  C       0.093615      1.108681      2.349471
  C      -0.978616      0.405385      1.765871
  N      -1.515605      0.913877      0.617205
  O      -0.857634      2.034819      0.061707
  O      -2.577646      0.539399      0.059039
  C      -4.588379      2.850324     -1.626455
  N      -3.183695      2.806351     -1.284362
  H      -2.934094      3.138551     -0.363214
  H      -5.165451      2.199316     -0.968396
  H      -4.944757      3.874022     -1.540667
  H      -4.693609      2.500480     -2.651151
  C       0.620549      4.105714     -1.389010
  O       1.489349      3.555209     -0.736980
  C       0.708132      5.527486     -1.871716
  H      -0.050489      6.130118     -1.379609
  H       1.689926      5.924094     -1.632425
  H       0.547748      5.566845     -2.945046
>
47
Coordinates from ORCA-job /home/esp/scriptDevelopment/drFrankenstein/11_PCY_CHARMM/04_torsion_scanning/torsion_NH1-CT1-CG321-CG2R61/scans_PCY_conformer_30/PCY_conformer_30_forwards/orca_scan Relaxed Surface Scan Step 11 E -79.898638422030
  H      -3.237885     -1.136677      1.197062
  H      -1.165616     -2.153691      3.973205
  H       0.594315     -2.276240      1.042316
  H       1.165286      1.419292     -1.390839
  H      -3.057279     -2.192593      2.627464
  H       1.562028     -0.475442     -0.324926
  H      -2.867833     -2.260105     -1.440755
  H       0.262477      1.376404     -2.925463
  H       1.553505      1.136447      3.942815
  H      -1.853910     -0.548766     -2.876573
  H       0.483363      1.984740      1.903369
  H      -1.278829      3.982938     -2.272134
  H       0.705387     -0.942698      5.001377
  N      -0.548673      3.487179     -1.783887
  C      -0.844377      2.158914     -1.292094
  C      -2.283990      2.013580     -1.890800
  C       0.212473      1.169071     -1.852283
  O      -2.488949      1.477491     -2.966348
  C      -0.160628     -0.258514     -1.586204
  C       0.592628     -0.876215     -0.581654
  C       0.059243     -1.881426      0.193076
  C      -1.264847     -2.245891     -0.023444
  C      -1.886308     -1.876017     -1.211018
  C      -1.319201     -0.898179     -2.009743
  O      -1.988975     -2.784881      1.032922
  C      -2.528240     -1.697984      1.811475
  C      -1.448939     -0.792088      2.375057
  C      -0.817125     -1.234423      3.527887
  C       0.246082     -0.558533      4.105377
  C       0.719640      0.604907      3.513911
  C       0.121968      1.084303      2.372496
  C      -0.969384      0.413026      1.787018
  N      -1.521597      0.964103      0.667378
  O      -0.889618      2.118646      0.140159
  O      -2.575608      0.585596      0.097299
  C      -4.569735      2.826989     -1.657827
  N      -3.176707      2.798478     -1.269808
  H      -2.963639      3.120362     -0.335927
  H      -5.159029      2.158855     -1.028227
  H      -4.943249      3.844340     -1.569853
  H      -4.636002      2.490212     -2.690169
  C       0.579913      4.177270     -1.445401
  O       1.455095      3.700657     -0.745747
  C       0.631692      5.562825     -2.027602
  H      -0.145874      6.177217     -1.581606
  H       1.600937      6.002452     -1.813951
  H       0.475044      5.522038     -3.101401
>
47
Coordinates from ORCA-job /home/esp/scriptDevelopment/drFrankenstein/11_PCY_CHARMM/04_torsion_scanning/torsion_NH1-CT1-CG321-CG2R61/scans_PCY_conformer_30/PCY_conformer_30_forwards/orca_scan Relaxed Surface Scan Step 12 E -79.888653902810
  H      -3.255903     -1.103848      1.224912
  H      -1.057346     -2.223192      3.872803
  H       0.560250     -2.428337      1.014400
  H       1.105536      1.406901     -0.982430
  H      -3.065988     -2.150499      2.660192
  H       1.574551     -0.604261     -0.277877
  H      -2.922100     -2.170404     -1.423749
  H       0.499120      1.450051     -2.646236
  H       1.654577      1.073773      3.840558
  H      -1.861138     -0.446511     -2.794458
  H       0.469662      2.010869      1.906533
  H      -1.292502      3.966860     -2.300617
  H       0.870487     -1.056513      4.846762
  N      -0.563352      3.493648     -1.788961
  C      -0.866387      2.203767     -1.209006
  C      -2.271900      2.034755     -1.884745
  C       0.243069      1.196740     -1.611293
  O      -2.405551      1.528465     -2.986524
  C      -0.157681     -0.246327     -1.495200
  C       0.586639     -0.953470     -0.539609
  C       0.028502     -1.974124      0.193584
  C      -1.315198     -2.268826     -0.013742
  C      -1.926220     -1.832654     -1.183243
  C      -1.333110     -0.838206     -1.942738
  O      -2.054747     -2.785648      1.043846
  C      -2.545353     -1.677908      1.825580
  C      -1.428389     -0.794266      2.354484
  C      -0.732781     -1.284756      3.449749
  C       0.361649     -0.633424      3.996185
  C       0.799647      0.558340      3.434112
  C       0.138373      1.086436      2.351106
  C      -0.980753      0.436843      1.793884
  N      -1.589674      1.033295      0.729402
  O      -1.009892      2.226391      0.221737
  O      -2.648992      0.648001      0.174594
  C      -4.578980      2.810653     -1.773008
  N      -3.213148      2.786530     -1.298756
  H      -3.060976      3.092791     -0.347918
  H      -5.200271      2.129240     -1.190345
  H      -4.966251      3.823586     -1.692869
  H      -4.578285      2.489598     -2.812558
  C       0.548300      4.217529     -1.456651
  O       1.403789      3.793465     -0.701689
  C       0.607499      5.563733     -2.123284
  H      -0.157562      6.211660     -1.703238
  H       1.583090      6.006026     -1.947314
  H       0.434721      5.461200     -3.190385
>
47
Coordinates from ORCA-job /home/esp/scriptDevelopment/drFrankenstein/11_PCY_CHARMM/04_torsion_scanning/torsion_NH1-CT1-CG321-CG2R61/scans_PCY_conformer_30/PCY_conformer_30_forwards/orca_scan Relaxed Surface Scan Step 13 E -79.878719489080
  H      -3.322483     -0.821534      1.487976
  H      -0.648557     -2.230322      3.526522
  H       0.334589     -2.726259      0.762620
  H       0.797374      1.314976     -0.349032
  H      -3.004913     -1.824802      2.926880
  H       1.431632     -0.911038     -0.470501
  H      -3.362096     -1.705864     -1.081692