
                                 *****************
                                 * O   R   C   A *
                                 *****************

                                            #,                                       
                                            ###                                      
                                            ####                                     
                                            #####                                    
                                            ######                                   
                                           ########,                                 
                                     ,,################,,,,,                         
                               ,,#################################,,                 
                          ,,##########################################,,             
                       ,#########################################, ''#####,          
                    ,#############################################,,   '####,        
                  ,##################################################,,,,####,       
                ,###########''''           ''''###############################       
              ,#####''   ,,,,##########,,,,          '''####'''          '####       
            ,##' ,,,,###########################,,,                        '##       
           ' ,,###''''                  '''############,,,                           
         ,,##''                                '''############,,,,        ,,,,,,###''
      ,#''                                            '''#######################'''  
     '                                                          ''''####''''         
             ,#######,   #######,   ,#######,      ##                                
            ,#'     '#,  ##    ##  ,#'     '#,    #''#        ,####,    ,#,          
            ##       ##  ##   ,#'  ##            #'  '#       #'       ,# #          
            ##       ##  #######   ##           ,######,      #####,      #          
            '#,     ,#'  ##    ##  '#,     ,#' ,#      #,     #,   #      #          
             '#######'   ##     ##  '#######'  #'      '#     '####' #    #          



                #########################################################
                #                        -***-                          #
                #          Department of theory and spectroscopy        #
                #                                                       #
                #                      Frank Neese                      #
                #                                                       #
                #     Directorship, Architecture, Infrastructure        #
                #                    SHARK, DRIVERS                     #
                #        Core code/Algorithms in most modules           #
                #                                                       #
                #        Max Planck Institute fuer Kohlenforschung      #
                #                Kaiser Wilhelm Platz 1                 #
                #                 D-45470 Muelheim/Ruhr                 #
                #                      Germany                          #
                #                                                       #
                #                  All rights reserved                  #
                #                        -***-                          #
                #########################################################


                         Program Version 6.1.0  -  RELEASE   -
                                (GIT: $679e74b$)
                          ($2025-06-10 18:02:51 +0200$)


 With contributions from (in alphabetic order):
[Max-Planck-Institut fuer Kohlenforschung]                               
  Daniel Aravena         : Magnetic Suceptibility                        
  Michael Atanasov       : Ab Initio Ligand Field Theory (pilot matlab implementation)
  Alexander A. Auer      : GIAO ZORA, VPT2 properties, NMR spectrum      
  Ute Becker             : All parallelization in ORCA, NUMFREQ, NUMCALC 
  Giovanni Bistoni       : ED, misc. LED, open-shell LED, HFLD           
  Dmytro Bykov           : pre 5.0 version of the SCF Hessian            
  Marcos Casanova-Páez   : Triplet and SCS-CIS(D). UHF-(DLPNO)-IP/EA/STEOM-CCSD. UHF-CVS-IP/STEOM-CCSD   
  Vijay G. Chilkuri      : MRCI spin determinant printing, contributions to CSF-ICE 
  Pauline Colinet        : FMM embedding                                 
  Dipayan Datta          : RHF DLPNO-CCSD density                        
  Achintya Kumar Dutta   : EOM-CC, STEOM-CC                              
  Nicolas Foglia         : Exact transition moments, OPA infrastructure, MCD improvements    
  Dmitry Ganyushin       : Spin-Orbit,Spin-Spin,Magnetic field MRCI      
  Miquel Garcia-Rates    : C-PCM and meta-GGA Hessian, CCSD/C-PCM, Gaussian charge scheme 
  Tiago L. C. Gouveia    : GS-ROHF, GS-ROCIS                             
  Yang Guo               : DLPNO-NEVPT2, F12-NEVPT2, CIM, IAO-localization        
  Andreas Hansen         : Spin unrestricted coupled pair/coupled cluster methods 
  Ingolf Harden          : AUTO-CI MPn and infrastructure                
  Benjamin Helmich-Paris : MC-RPA, TRAH-(SCF,CASSCF), AVAS, COSX integrals, SCF dyn. polar., MC-PDFT, srDFT 
  Lee Huntington         : MR-EOM, pCC                                   
  Robert Izsak           : Overlap fitted RIJCOSX, COSX-SCS-MP3, EOM     
  Riya Kayal             : Wick's Theorem for AUTO-CI, AUTO-CI UHF-CCSDT 
  Emily Kempfer          : AUTO-CI RHF CISDT and CCSDT, approximate NEVPT4
  Christian Kollmar      : KDIIS, OOCD, Brueckner-CCSD(T), CCSD density, CASPT2, CASPT2-K, improved NEVPT2 
  Axel Koslowski         : Symmetry handling                             
  Simone Kossmann        : meta-GGA functionals, TD-DFT gradient, OOMP2, (MP2 Hessian; deprecated post 5.0) 
  Lucas Lang             : DCDCAS, Hyperfine gauge corrections, ICE-SOC+SSC
  Marvin Lechner         : AUTO-CI (C++ implementation), FIC-MRCC        
  Spencer Leger          : CASSCF response                               
  Dagmar Lenk            : GEPOL surface, SMD, ORCA-2-JSON               
  Dimitrios Liakos       : Extrapolation schemes; Compound Job, Property file
  Dimitrios Manganas     : Further ROCIS development; embedding schemes. LFT, Crystal Embedding 
  Dimitrios Pantazis     : SARC Basis sets                               
  Anastasios Papadopoulos: AUTO-CI, single reference methods and gradients 
  Taras Petrenko         : pre 6.0 DFT Hessian and TD-DFT gradient,  ECA, NRVS 
  Petra Pikulova         : Analytic Raman intensities                    
  Peter Pinski           : DLPNO-MP2, DLPNO-MP2 Gradient                 
  Shashank Vittal Rao    : ES-AILFT, MagRelax                            
  Christoph Reimann      : Effective Core Potentials                     
  Marius Retegan         : Local ZFS, SOC                                
  Christoph Riplinger    : Optimizer, TS searches, QM/MM, DLPNO-CCSD(T), (RO)-DLPNO pert. Triples 
  Michael Roemelt        : Original ROCIS implementation, recursive CI coupling coefficients
  Masaaki Saitow         : Open-shell DLPNO-CCSD energy and density      
  Barbara Sandhoefer     : DKH picture change effects                    
  Yorick L. A. Schmerwitz: GMF and freeze-and-release deltaSCF, NEB S-IDPP initial path                    
  Kantharuban Sivalingam : CASSCF convergence/infrastructure, NEVPT2, NEVPT3, NEVPT4(SD), FIC-MRCI and CEPA variants
  Bernardo de Souza      : ESD, SOC TD-DFT                               
  Georgi L. Stoychev     : AutoAux, RI-MP2 NMR, DLPNO-MP2 response, X2C  
  Van Anh Tran           : RI-MP2 g-tensors                              
  Willem Van den Heuvel  : Paramagnetic NMR                              
  Zikuan Wang            : NOTCH, Electric field optimization            
  Frank Wennmohs         : Technical directorship and infrastructure     
  Hang Xu                : AUTO-CI-Response properties                   
                                                                         
[FACCTs GmbH]                                                            
  Markus Bursch, Nicolas Foglia, Miquel Garcia-Rates, Ingolf Harden, Hagen Neugebauer, Anastasios Papadopoulos, 
  Christoph Riplinger, Bernardo de Souza, Georgi L. Stoychev                                                    
                                                                 
  APM, various basis sets, CI-OPT, improved COSX, DLPNO-Multilevel,           
  DOCKER, DRACO, updates on ESD, Fragmentator, GOAT, IRC, LR-CPCM, L-BFGS, MBIS, meta-GGA TD-DFT gradient, ML-optimized integration grids, 
  MM, NACMEs, nearIR, NEB, NEB-TS, NL-DFT gradient (VV10), 2- and 3-layer-ONIOM, interface openCOSMO-RS, QMMM,   
  Crystal-QMMM, RESP, rigid body optimization, SF, symmetry and pop. for TD-DFT, various functionals, SOLVATOR                                   
                                                                         
[Other institutions]                                                     
  V. Asgeirsson          : NEB                                           
  Christoph Bannwarth    : sTDA-DFT, sTD-DFT, PBEh-3c, B97-3c, D3        
  Giovanni Bistoni       : ETS/NOCV, ADLD/ADEX, COVALED                  
  Martin Brehm           : Molecular dynamics                            
  Ronald Cardenas        : ETS/NOCV                                      
  Martina Colucci        : COVALED                                       
  Sebastian Ehlert       : rSCAN, r2SCAN, r2SCAN-3c, D4, dhf basis sets  
  Marvin Friede          : D4 for Fr, Ra, Ac-Lr                          
  Lars Goerigk           : TD-DFT with DH, B97 family of functionals     
  Stefan Grimme          : VdW corrections, initial TS optimization, DFT functionals, gCP, sTDA/sTD-DF 
  Waldemar Hujo          : DFT-NL                                        
  H. Jonsson             : NEB                                           
  Holger Kruse           : gCP                                           
  Marcel Mueller         : wB97X-3c, vDZP basis set                      
  Hagen Neugebauer       : wr2SCAN, Native XTB                           
  Gianluca Regni         : ADLD/ADEX                                     
  Tobias Risthaus        : pre 6.0 range-separated hybrid DFT and stability analysis
  Lukas Wittmann         : regularized MP2, r2SCAN double-hybrids, wr2SCAN        
                                                                         
We gratefully acknowledge several colleagues who have allowed us to      
interface, adapt or use parts of their codes:                            
  Ed Valeev, F. Pavosevic, A. Kumar             : LibInt (2-el integral package), F12 methods 
  Garnet Chan, S. Sharma, J. Yang, R. Olivares  : DMRG                   
  Ulf Ekstrom                                   : XCFun DFT Library      
  Mihaly Kallay                                 : mrcc  (arbitrary order and MRCC methods)
  Frank Weinhold                                : gennbo (NPA and NBO analysis)           
  Simon Mueller                                 : openCOSMO-RS                            
  Christopher J. Cramer and Donald G. Truhlar   : smd solvation model                     
  S Lehtola, MJT Oliveira, MAL Marques          : LibXC Library                           
  Liviu Ungur et al                             : ANISO software                          


 Your calculation uses the libint2 library for the computation of 2-el integrals
 For citations please refer to: http://libint.valeyev.net

 Your ORCA version has been built with support for libXC version: 7.0.0
 For citations please refer to: https://libxc.gitlab.io

 This ORCA versions uses:
   CBLAS   interface :  Fast vector & matrix operations
   LAPACKE interface :  Fast linear algebra routines
   SCALAPACK package :  Parallel linear algebra routines
   Shared memory     :  Shared parallel matrices
   BLAS/LAPACK       :  OpenBLAS 0.3.29  USE64BITINT DYNAMIC_ARCH NO_AFFINITY Haswell SINGLE_THREADED
        Core in use  :  Haswell
   Copyright (c) 2011-2014, The OpenBLAS Project


  ***********************************
  * Starting time: Wed Jul 16 15:48:04 2025
  * Host name:     MONSTER
  * Process ID:    442515
  * Working dir.:  /home/esp/scriptDevelopment/drFrankenstein
  ***********************************



***************************************
The coordinates will be read from file: /home/esp/scriptDevelopment/drFrankenstein/11_PCY_CHARMM/03_GOAT_conformers/PCY_conformer_46.xyz
***************************************


Your calculation utilizes the semiempirical GFN2-xTB method
Please cite in your paper:
Bannwarth, C.; Ehlert S.; Grimme, S. J. Chem. Theory Comput. 2019, 15, 1652.
   

================================================================================

================================================================================
                                        WARNINGS
                       Please study these warnings very carefully!
================================================================================


WARNING: Geometry Optimization
  ===> : Switching off AutoStart
         For restart on a previous wavefunction, please use MOREAD

WARNING: Found dipole moment calculation with XTB calculation
  ===> : Switching off dipole moment calculation


================================================================================
                                       INPUT FILE
================================================================================
NAME = /home/esp/scriptDevelopment/drFrankenstein/11_PCY_CHARMM/04_torsion_scanning/torsion_NH1-CT1-CG321-CG2R61/scans_PCY_conformer_46/PCY_conformer_46_opt/orca_opt.inp
|  1>  # --------------------------------- #
|  2>  #  Geometry Optimisation            #
|  3>  # --------------------------------- #
|  4> ! XTB2 ALPB(water) Opt
|  5> *xyzfile 0 1 /home/esp/scriptDevelopment/drFrankenstein/11_PCY_CHARMM/03_GOAT_conformers/PCY_conformer_46.xyz
|  6> 
|  7> 
|  8>                          ****END OF INPUT****
================================================================================

                       *****************************
                       * Geometry Optimization Run *
                       *****************************

Geometry optimization settings:
Update method            Update   .... BFGS
Choice of coordinates    CoordSys .... (2022) Redundant Internals
Initial Hessian          InHess   .... Almloef's Model
Max. no of cycles        MaxIter  .... 141

Convergence Tolerances:
Energy Change            TolE     ....  5.0000e-06 Eh
Max. Gradient            TolMAXG  ....  3.0000e-04 Eh/bohr
RMS Gradient             TolRMSG  ....  1.0000e-04 Eh/bohr
Max. Displacement        TolMAXD  ....  4.0000e-03 bohr
RMS Displacement         TolRMSD  ....  2.0000e-03 bohr
Strict Convergence                .... False

------------------------------------------------------------------------------
                        ORCA OPTIMIZATION COORDINATE SETUP
------------------------------------------------------------------------------

The optimization will be done in redundant internal coordinates (2022)
Making redundant internal coordinates   ...  (2022 redundants) done
Evaluating the initial hessian          ...  (Almloef) done
Evaluating the coordinates              ...  done
Calculating the B-matrix                .... done
Calculating the G-matrix                .... done
The number of degrees of freedom        ....  227

    -----------------------------------------------------------------
                    Redundant Internal Coordinates


    -----------------------------------------------------------------
         Definition                    Initial Value    Approx d2E/dq
    -----------------------------------------------------------------
      1. B(N  13,H  11)                  1.0252         0.409283   
      2. B(C  14,N  13)                  1.3643         0.614991   
      3. B(C  15,C  14)                  1.4484         0.504116   
      4. B(C  16,C  14)                  1.4858         0.439411   
      5. B(C  16,H   7)                  1.0939         0.354948   
      6. B(C  16,H   3)                  1.0930         0.356121   
      7. B(O  17,C  15)                  1.2371         0.981257   
      8. B(O  17,H  11)                  1.9968         0.011529   
      9. B(C  18,C  16)                  1.5146         0.395370   
     10. B(C  19,C  18)                  1.3880         0.629337   
     11. B(C  19,H   5)                  1.0809         0.372385   
     12. B(C  20,C  19)                  1.3814         0.644932   
     13. B(C  20,H   2)                  1.0788         0.375292   
     14. B(C  21,C  20)                  1.3868         0.632239   
     15. B(C  22,C  21)                  1.3888         0.627529   
     16. B(C  22,H   6)                  1.0797         0.373990   
     17. B(C  23,C  22)                  1.3803         0.647558   
     18. B(C  23,C  18)                  1.3872         0.631184   
     19. B(C  23,H   9)                  1.0798         0.373899   
     20. B(O  24,C  21)                  1.3889         0.561933   
     21. B(C  25,O  24)                  1.4232         0.495392   
     22. B(C  25,H   4)                  1.0946         0.354031   
     23. B(C  25,H   0)                  1.0935         0.355559   
     24. B(C  26,C  25)                  1.5124         0.398588   
     25. B(C  27,C  26)                  1.3924         0.619421   
     26. B(C  27,H   1)                  1.0799         0.373658   
     27. B(C  28,C  27)                  1.3821         0.643125   
     28. B(C  28,H  12)                  1.0796         0.374081   
     29. B(C  29,C  28)                  1.3865         0.632821   
     30. B(C  29,H   8)                  1.0787         0.375339   
     31. B(C  30,C  29)                  1.3787         0.651180   
     32. B(C  30,H  10)                  1.0787         0.375361   
     33. B(C  31,C  30)                  1.3931         0.617796   
     34. B(C  31,C  26)                  1.3980         0.606716   
     35. B(N  32,C  31)                  1.4409         0.464128   
     36. B(O  33,N  32)                  1.2128         0.960925   
     37. B(O  34,N  32)                  1.2139         0.957121   
     38. B(N  36,C  35)                  1.4395         0.466484   
     39. B(N  36,C  15)                  1.3626         0.618860   
     40. B(H  37,N  36)                  1.0057         0.439593   
     41. B(H  38,C  35)                  1.0918         0.357786   
     42. B(H  39,C  35)                  1.0889         0.361507   
     43. B(H  40,C  35)                  1.0930         0.356185   
     44. B(C  41,N  13)                  1.3712         0.599676   
     45. B(O  42,C  41)                  1.2162         1.059735   
     46. B(C  43,C  41)                  1.5077         0.405453   
     47. B(H  44,C  43)                  1.0879         0.362879   
     48. B(H  45,C  43)                  1.0884         0.362222   
     49. B(H  46,O  34)                  2.3587         0.010000   
     50. B(H  46,C  43)                  1.0863         0.365067   
     51. A(H  11,N  13,C  41)          118.5747         0.353292   
     52. A(C  14,N  13,C  41)          131.7762         0.425242   
     53. A(H  11,N  13,C  14)          109.5979         0.354804   
     54. A(N  13,C  14,C  15)          111.5352         0.414970   
     55. A(N  13,C  14,C  16)          121.0767         0.404991   
     56. A(C  15,C  14,C  16)          127.3677         0.393594   
     57. A(O  17,C  15,N  36)          121.9839         0.465421   
     58. A(C  14,C  15,O  17)          119.8644         0.451330   
     59. A(C  14,C  15,N  36)          118.1486         0.415433   
     60. A(H   3,C  16,H   7)          107.7210         0.289677   
     61. A(H   3,C  16,C  14)          111.0706         0.332512   
     62. A(C  14,C  16,C  18)          111.8119         0.377295   
     63. A(H   3,C  16,C  18)          110.2869         0.326760   
     64. A(H   7,C  16,C  14)          108.5665         0.332330   
     65. A(H   7,C  16,C  18)          107.2046         0.326582   
     66. A(C  16,C  18,C  23)          119.8063         0.401922   
     67. A(C  19,C  18,C  23)          119.1334         0.436639   
     68. A(C  16,C  18,C  19)          121.0250         0.401714   
     69. A(C  18,C  19,C  20)          120.6132         0.438339   
     70. A(H   5,C  19,C  18)          119.8920         0.355822   
     71. A(H   5,C  19,C  20)          119.4410         0.357304   
     72. A(H   2,C  20,C  21)          119.6055         0.356570   
     73. A(C  19,C  20,C  21)          119.7442         0.438703   
     74. A(H   2,C  20,C  19)          120.6057         0.357777   
     75. A(C  22,C  21,O  24)          119.5357         0.424609   
     76. A(C  20,C  21,O  24)          120.5058         0.425178   
     77. A(C  20,C  21,C  22)          119.9143         0.436544   
     78. A(C  21,C  22,C  23)          119.8309         0.438433   
     79. A(H   6,C  22,C  23)          120.6127         0.357812   
     80. A(H   6,C  22,C  21)          119.5158         0.355907   
     81. A(C  18,C  23,C  22)          120.5504         0.438892   
     82. A(H   9,C  23,C  22)          119.6019         0.357798   
     83. A(H   9,C  23,C  18)          119.7976         0.356244   
     84. A(C  21,O  24,C  25)          111.6903         0.404504   
     85. A(H   0,C  25,H   4)          109.5728         0.289488   
     86. A(O  24,C  25,C  26)          109.7376         0.383328   
     87. A(H   4,C  25,C  26)          111.9403         0.326879   
     88. A(H   0,C  25,C  26)          110.1096         0.327111   
     89. A(H   4,C  25,O  24)          110.2551         0.336822   
     90. A(H   0,C  25,O  24)          104.9982         0.337064   
     91. A(C  27,C  26,C  31)          117.4331         0.432306   
     92. A(C  25,C  26,C  31)          125.4981         0.399704   
     93. A(C  25,C  26,C  27)          116.9391         0.401165   
     94. A(C  26,C  27,C  28)          121.8282         0.436864   
     95. A(H   1,C  27,C  28)          120.0229         0.357341   
     96. A(H   1,C  27,C  26)          118.1388         0.355070   
     97. A(C  27,C  28,C  29)          119.9828         0.438554   
     98. A(H  12,C  28,C  29)          120.1924         0.356430   
     99. A(H  12,C  28,C  27)          119.8235         0.357410   
    100. A(C  28,C  29,C  30)          119.3990         0.439540   
    101. A(H   8,C  29,C  30)          120.0967         0.358371   
    102. A(H   8,C  29,C  28)          120.5039         0.356633   
    103. A(C  29,C  30,C  31)          120.4850         0.437639   
    104. A(H  10,C  30,C  31)          118.2945         0.355185   
    105. A(H  10,C  30,C  29)          121.2081         0.358375   
    106. A(C  30,C  31,N  32)          115.3816         0.409259   
    107. A(C  26,C  31,N  32)          123.7179         0.407950   
    108. A(C  26,C  31,C  30)          120.8476         0.432102   
    109. A(O  33,N  32,O  34)          123.8918         0.495591   
    110. A(C  31,N  32,O  34)          116.3436         0.436763   
    111. A(C  31,N  32,O  33)          119.7444         0.437076   
    112. A(N  36,C  35,H  38)          110.4362         0.334057   
    113. A(H  39,C  35,H  40)          109.2255         0.290518   
    114. A(H  38,C  35,H  40)          109.0721         0.290047   
    115. A(N  36,C  35,H  40)          111.2835         0.333808   
    116. A(H  38,C  35,H  39)          109.5161         0.290723   
    117. A(N  36,C  35,H  39)          107.2733         0.334631   
    118. A(C  35,N  36,H  37)          117.5931         0.342756   
    119. A(C  15,N  36,H  37)          119.6884         0.359521   
    120. A(C  15,N  36,C  35)          121.6682         0.407112   
    121. A(O  42,C  41,C  43)          124.4135         0.439960   
    122. A(N  13,C  41,C  43)          111.6625         0.397524   
    123. A(N  13,C  41,O  42)          123.9225         0.469314   
    124. A(H  45,C  43,H  46)          109.6444         0.291736   
    125. A(H  44,C  43,H  46)          108.7672         0.291819   
    126. A(C  41,C  43,H  46)          109.7295         0.329465   
    127. A(H  44,C  43,H  45)          108.7369         0.291460   
    128. A(C  41,C  43,H  45)          110.0681         0.329040   
    129. A(C  41,C  43,H  44)          109.8696         0.329138   
    130. D(C  16,C  14,N  13,C  41)      3.1566         0.030587   
    131. D(C  15,C  14,N  13,C  41)   -175.3133         0.030587   
    132. D(C  16,C  14,N  13,H  11)   -179.5497         0.030587   
    133. D(C  15,C  14,N  13,H  11)      1.9804         0.030587   
    134. D(N  36,C  15,C  14,N  13)    175.2832         0.017313   
    135. D(O  17,C  15,C  14,C  16)    176.3061         0.017313   
    136. D(N  36,C  15,C  14,C  16)     -3.0678         0.017313   
    137. D(O  17,C  15,C  14,N  13)     -5.3429         0.017313   
    138. D(H   7,C  16,C  14,C  15)   -131.8777         0.014248   
    139. D(C  18,C  16,C  14,N  13)    -68.1542         0.014248   
    140. D(H   3,C  16,C  14,C  15)    -13.6153         0.014248   
    141. D(H   3,C  16,C  14,N  13)    168.1757         0.014248   
    142. D(H   7,C  16,C  14,N  13)     49.9133         0.014248   
    143. D(C  19,C  18,C  16,H   3)     94.1052         0.011614   
    144. D(C  19,C  18,C  16,H   7)   -148.8831         0.011614   
    145. D(C  19,C  18,C  16,C  14)    -30.0052         0.011614   
    146. D(C  23,C  18,C  16,H   7)     28.9358         0.011614   
    147. D(C  23,C  18,C  16,H   3)    -88.0759         0.011614   
    148. D(C  20,C  19,C  18,C  16)    173.7696         0.027458   
    149. D(H   5,C  19,C  18,C  23)    178.6168         0.027458   
    150. D(C  20,C  19,C  18,C  23)     -4.0638         0.027458   
    151. D(H   5,C  19,C  18,C  16)     -3.5499         0.027458   
    152. D(C  21,C  20,C  19,C  18)      0.6591         0.028929   
    153. D(C  21,C  20,C  19,H   5)    177.9905         0.028929   
    154. D(H   2,C  20,C  19,C  18)   -176.9002         0.028929   
    155. D(H   2,C  20,C  19,H   5)      0.4313         0.028929   
    156. D(O  24,C  21,C  20,C  19)   -174.2008         0.027728   
    157. D(O  24,C  21,C  20,H   2)      3.3831         0.027728   
    158. D(C  22,C  21,C  20,C  19)      3.3704         0.027728   
    159. D(C  22,C  21,C  20,H   2)   -179.0457         0.027728   
    160. D(H   6,C  22,C  21,C  20)    178.3485         0.027290   
    161. D(C  23,C  22,C  21,O  24)    173.6408         0.027290   
    162. D(C  23,C  22,C  21,C  20)     -3.9540         0.027290   
    163. D(H   6,C  22,C  21,O  24)     -4.0567         0.027290   
    164. D(C  18,C  23,C  22,C  21)      0.5082         0.029181   
    165. D(C  18,C  23,C  22,H   6)    178.1801         0.029181   
    166. D(H   9,C  23,C  22,C  21)   -176.9120         0.029181   
    167. D(H   9,C  23,C  22,H   6)      0.7599         0.029181   
    168. D(C  22,C  23,C  18,C  19)      3.4738         0.027629   
    169. D(C  22,C  23,C  18,C  16)   -174.3864         0.027629   
    170. D(H   9,C  23,C  18,C  19)   -179.1109         0.027629   
    171. D(H   9,C  23,C  18,C  16)      3.0288         0.027629   
    172. D(C  25,O  24,C  21,C  22)    -94.7927         0.022886   
    173. D(C  25,O  24,C  21,C  20)     82.7876         0.022886   
    174. D(C  26,C  25,O  24,C  21)     61.7300         0.019391   
    175. D(H   4,C  25,O  24,C  21)    -62.0172         0.019391   
    176. D(H   0,C  25,O  24,C  21)   -179.9572         0.019391   
    177. D(C  31,C  26,C  25,H   4)     16.1667         0.011794   
    178. D(C  31,C  26,C  25,H   0)    138.3138         0.011794   
    179. D(C  27,C  26,C  25,O  24)     69.1485         0.011794   
    180. D(C  27,C  26,C  25,H   4)   -168.0959         0.011794   
    181. D(C  27,C  26,C  25,H   0)    -45.9489         0.011794   
    182. D(C  28,C  27,C  26,C  31)      1.3212         0.026547   
    183. D(C  28,C  27,C  26,C  25)   -174.7693         0.026547   
    184. D(H   1,C  27,C  26,C  31)   -179.8394         0.026547   
    185. D(H   1,C  27,C  26,C  25)      4.0701         0.026547   
    186. D(C  29,C  28,C  27,C  26)     -0.2297         0.028756   
    187. D(C  29,C  28,C  27,H   1)   -179.0477         0.028756   
    188. D(H  12,C  28,C  27,C  26)    179.3490         0.028756   
    189. D(H  12,C  28,C  27,H   1)      0.5310         0.028756   
    190. D(C  30,C  29,C  28,H  12)    179.2587         0.027782   
    191. D(H   8,C  29,C  28,C  27)    179.0837         0.027782   
    192. D(H   8,C  29,C  28,H  12)     -0.4934         0.027782   
    193. D(C  30,C  29,C  28,C  27)     -1.1642         0.027782   
    194. D(C  31,C  30,C  29,C  28)      1.4243         0.029532   
    195. D(C  31,C  30,C  29,H   8)   -178.8225         0.029532   
    196. D(H  10,C  30,C  29,C  28)   -179.8764         0.029532   
    197. D(H  10,C  30,C  29,H   8)     -0.1233         0.029532   
    198. D(N  32,C  31,C  30,C  29)   -177.7536         0.026399   
    199. D(N  32,C  31,C  30,H  10)      3.5099         0.026399   
    200. D(C  26,C  31,C  30,C  29)     -0.3023         0.026399   
    201. D(C  26,C  31,C  30,H  10)   -179.0388         0.026399   
    202. D(N  32,C  31,C  26,C  27)    176.1793         0.025407   
    203. D(N  32,C  31,C  26,C  25)     -8.1023         0.025407   
    204. D(C  30,C  31,C  26,C  27)     -1.0521         0.025407   
    205. D(C  30,C  31,C  26,C  25)    174.6662         0.025407   
    206. D(O  34,N  32,C  31,C  30)     30.5088         0.016974   
    207. D(O  34,N  32,C  31,C  26)   -146.8605         0.016974   
    208. D(O  33,N  32,C  31,C  30)   -151.0603         0.016974   
    209. D(O  33,N  32,C  31,C  26)     31.5705         0.016974   
    210. D(H  37,N  36,C  35,H  39)   -176.2380         0.018586   
    211. D(H  37,N  36,C  35,H  38)     64.4731         0.018586   
    212. D(C  15,N  36,C  35,H  40)    111.4191         0.018586   
    213. D(C  15,N  36,C  35,H  39)     -8.0012         0.018586   
    214. D(C  15,N  36,C  35,H  38)   -127.2901         0.018586   
    215. D(H  37,N  36,C  15,O  17)    171.1381         0.031004   
    216. D(H  37,N  36,C  15,C  14)     -9.5021         0.031004   
    217. D(C  35,N  36,C  15,O  17)      3.1421         0.031004   
    218. D(C  35,N  36,C  15,C  14)   -177.4980         0.031004   
    219. D(C  43,C  41,N  13,C  14)    178.9778         0.028974   
    220. D(C  43,C  41,N  13,H  11)      1.8812         0.028974   
    221. D(O  42,C  41,N  13,C  14)     -1.4478         0.028974   
    222. D(O  42,C  41,N  13,H  11)   -178.5444         0.028974   
    223. D(H  46,C  43,C  41,N  13)   -176.3801         0.012186   
    224. D(H  45,C  43,C  41,O  42)   -116.6989         0.012186   
    225. D(H  45,C  43,C  41,N  13)     62.8730         0.012186   
    226. D(H  44,C  43,C  41,O  42)    123.5880         0.012186   
    227. D(H  44,C  43,C  41,N  13)    -56.8401         0.012186   
    -----------------------------------------------------------------

Number of atoms                         .... 47
Number of degrees of freedom            .... 227


         *************************************************************
         *                GEOMETRY OPTIMIZATION CYCLE   1            *
         *************************************************************
---------------------------------
CARTESIAN COORDINATES (ANGSTROEM)
---------------------------------
  H    -2.036490   -0.659290    4.508360
  H    -0.675150   -2.614760    3.886470
  H    -1.157540    2.648760    2.564520
  H     1.576800    2.567970   -1.828010
  H    -2.588350    0.449990    3.219660
  H    -0.636850    3.437240    0.291160
  H     0.948890   -0.977910    1.794030
  H     0.647540    1.143360   -2.303640
  H    -1.410620   -4.494060    0.121260
  H     1.437510   -0.210180   -0.495220
  H    -2.733420   -2.516160   -0.572790
  H    -2.377010    3.124400   -2.734670
  H    -0.402730   -4.542330    2.383470
  N    -1.751160    2.393880   -2.380290
  C    -0.499430    2.908150   -2.207000
  C    -0.455270    4.319640   -2.528980
  C     0.615540    2.061360   -1.709570
  O    -1.454930    4.875550   -3.000270
  C     0.411350    1.653460   -0.265330
  C    -0.282820    2.469450    0.617230
  C    -0.575250    2.034810    1.895410
  C    -0.160100    0.777030    2.306250
  C     0.606610   -0.010770    1.457530
  C     0.883710    0.426830    0.178140
  O    -0.546840    0.275840    3.542450
  C    -1.844710   -0.305850    3.491530
  C    -1.844720   -1.471020    2.527370
  C    -1.129500   -2.603770    2.906820
  C    -0.972860   -3.684580    2.059710
  C    -1.539970   -3.661350    0.794680
  C    -2.277720   -2.564160    0.403750
  C    -2.429580   -1.473970    1.257600
  N    -3.263170   -0.409910    0.758450
  O    -3.061360    0.731080    1.116710
  O    -4.161340   -0.735410    0.009520
  C     0.821200    6.407370   -2.552370
  N     0.708890    4.992900   -2.309600
  H     1.454930    4.546320   -1.804200
  H     1.674270    6.616290   -3.200870
  H    -0.096600    6.724760   -3.045010
  H     0.938550    6.962180   -1.618020
  C    -2.272350    1.152120   -2.122410
  O    -1.625380    0.223640   -1.676940
  C    -3.738020    1.080820   -2.468700
  H    -4.284560    1.847110   -1.923140
  H    -3.878070    1.244170   -3.535620
  H    -4.132910    0.107030   -2.193420

----------------------------
CARTESIAN COORDINATES (A.U.)
----------------------------
  NO LB    ZA    FRAG    MASS        X           Y           Z
   0 H   1.0000    0     1.008   -3.848408   -1.245878    8.519566
   1 H   1.0000    0     1.008   -1.275849   -4.941180    7.344364
   2 H   1.0000    0     1.008   -2.187434    5.005431    4.846240
   3 H   1.0000    0     1.008    2.979720    4.852760   -3.454438
   4 H   1.0000    0     1.008   -4.891273    0.850358    6.084276
   5 H   1.0000    0     1.008   -1.203472    6.495442    0.550213
   6 H   1.0000    0     1.008    1.793142   -1.847982    3.390225
   7 H   1.0000    0     1.008    1.223673    2.160637   -4.353249
   8 H   1.0000    0     1.008   -2.665685   -8.492543    0.229148
   9 H   1.0000    0     1.008    2.716500   -0.397183   -0.935830
  10 H   1.0000    0     1.008   -5.165415   -4.754853   -1.082416
  11 H   1.0000    0     1.008   -4.491898    5.904260   -5.167777
  12 H   1.0000    0     1.008   -0.761049   -8.583760    4.504106
  13 N   7.0000    0    14.007   -3.309213    4.523778   -4.498096
  14 C   6.0000    0    12.011   -0.943786    5.495607   -4.170626
  15 C   6.0000    0    12.011   -0.860336    8.162937   -4.779080
  16 C   6.0000    0    12.011    1.163202    3.895406   -3.230619
  17 O   8.0000    0    15.999   -2.749419    9.213454   -5.669689
  18 C   6.0000    0    12.011    0.777339    3.124587   -0.501401
  19 C   6.0000    0    12.011   -0.534452    4.666584    1.166396
  20 C   6.0000    0    12.011   -1.087065    3.845234    3.581806
  21 C   6.0000    0    12.011   -0.302545    1.468374    4.358181
  22 C   6.0000    0    12.011    1.146327   -0.020352    2.754333
  23 C   6.0000    0    12.011    1.669970    0.806592    0.336636
  24 O   8.0000    0    15.999   -1.033378    0.521262    6.694260
  25 C   6.0000    0    12.011   -3.485997   -0.577973    6.598035
  26 C   6.0000    0    12.011   -3.486016   -2.779825    4.776037
  27 C   6.0000    0    12.011   -2.134446   -4.920412    5.493094
  28 C   6.0000    0    12.011   -1.838439   -6.962847    3.892288
  29 C   6.0000    0    12.011   -2.910122   -6.918949    1.501728
  30 C   6.0000    0    12.011   -4.304267   -4.845560    0.762977
  31 C   6.0000    0    12.011   -4.591241   -2.785400    2.376520
  32 N   7.0000    0    14.007   -6.166498   -0.774618    1.433263
  33 O   8.0000    0    15.999   -5.785132    1.381541    2.110276
  34 O   8.0000    0    15.999   -7.863793   -1.389723    0.017990
  35 C   6.0000    0    12.011    1.551843   12.108175   -4.823280
  36 N   7.0000    0    14.007    1.339608    9.435214   -4.364511
  37 H   1.0000    0     1.008    2.749419    8.591300   -3.409444
  38 H   1.0000    0     1.008    3.163912   12.502976   -6.048768
  39 H   1.0000    0     1.008   -0.182548   12.707955   -5.754235
  40 H   1.0000    0     1.008    1.773602   13.156613   -3.057615
  41 C   6.0000    0    12.011   -4.294119    2.177191   -4.010774
  42 O   8.0000    0    15.999   -3.071523    0.422618   -3.168957
  43 C   6.0000    0    12.011   -7.063834    2.042454   -4.665167
  44 H   1.0000    0     1.008   -8.096645    3.490532   -3.634208
  45 H   1.0000    0     1.008   -7.328490    2.351141   -6.681354
  46 H   1.0000    0     1.008   -7.810068    0.202257   -4.144963

      -----------------------------------------------------------      
     |                   =====================                   |     
     |                           x T B                           |     
     |                   =====================                   |     
     |                         S. Grimme                         |     
     |          Mulliken Center for Theoretical Chemistry        |     
     |                    University of Bonn                     |     
      -----------------------------------------------------------      

   * xtb version 6.7.1 (edcfbbe) compiled by 'albert@albert-system' on 2024-07-22

   xtb is free software: you can redistribute it and/or modify it under
   the terms of the GNU Lesser General Public License as published by
   the Free Software Foundation, either version 3 of the License, or
   (at your option) any later version.
   
   xtb is distributed in the hope that it will be useful,
   but WITHOUT ANY WARRANTY; without even the implied warranty of
   MERCHANTABILITY or FITNESS FOR A PARTICULAR PURPOSE.  See the
   GNU Lesser General Public License for more details.
   
   Cite this work as:
   * C. Bannwarth, E. Caldeweyher, S. Ehlert, A. Hansen, P. Pracht,
     J. Seibert, S. Spicher, S. Grimme, WIREs Comput. Mol. Sci., 2020, 11,
     e01493. DOI: 10.1002/wcms.1493
   
   for GFN2-xTB:
   * C. Bannwarth, S. Ehlert and S. Grimme., J. Chem. Theory Comput., 2019,
     15, 1652-1671. DOI: 10.1021/acs.jctc.8b01176
   for GFN1-xTB:
   * S. Grimme, C. Bannwarth, P. Shushkov, J. Chem. Theory Comput., 2017,
     13, 1989-2009. DOI: 10.1021/acs.jctc.7b00118
   for GFN0-xTB:
   * P. Pracht, E. Caldeweyher, S. Ehlert, S. Grimme, ChemRxiv, 2019, preprint.
     DOI: 10.26434/chemrxiv.8326202.v1
   for GFN-FF:
   * S. Spicher and S. Grimme, Angew. Chem. Int. Ed., 2020, 59, 15665-15673.
     DOI: 10.1002/anie.202004239
   
   for ALPB and GBSA implicit solvation:
   * S. Ehlert, M. Stahn, S. Spicher, S. Grimme, J. Chem. Theory Comput.,
     2021, 17, 4250-4261. DOI: 10.1021/acs.jctc.1c00471
   
   for ddCOSMO and CPCM-X implicit solvation:
   * M. Stahn, S. Ehlert, S. Grimme, J. Phys. Chem. A,
     2023, XX, XXXX-XXXX. DOI: 10.1021/acs.jpca.3c04382
   
   for DFT-D4:
   * E. Caldeweyher, C. Bannwarth and S. Grimme, J. Chem. Phys., 2017,
     147, 034112. DOI: 10.1063/1.4993215
   * E. Caldeweyher, S. Ehlert, A. Hansen, H. Neugebauer, S. Spicher,
     C. Bannwarth and S. Grimme, J. Chem. Phys., 2019, 150, 154122.
     DOI: 10.1063/1.5090222
   * E. Caldeweyher, J.-M. Mewes, S. Ehlert and S. Grimme, Phys. Chem. Chem. Phys.
     2020, 22, 8499-8512. DOI: 10.1039/D0CP00502A
   
   for sTDA-xTB:
   * S. Grimme and C. Bannwarth, J. Chem. Phys., 2016, 145, 054103.
     DOI: 10.1063/1.4959605
   
   in the mass-spec context:
   * V. Asgeirsson, C. Bauer and S. Grimme, Chem. Sci., 2017, 8, 4879.
     DOI: 10.1039/c7sc00601b
   * J. Koopman and S. Grimme, ACS Omega 2019, 4, 12, 15120-15133.
     DOI: 10.1021/acsomega.9b02011
   
   for metadynamics refer to:
   * S. Grimme, J. Chem. Theory Comput., 2019, 155, 2847-2862
     DOI: 10.1021/acs.jctc.9b00143
   
   for SPH calculations refer to:
   * S. Spicher and S. Grimme, J. Chem. Theory Comput., 2021, 17, 1701-1714
     DOI: 10.1021/acs.jctc.0c01306
   
   for ONIOM refer to:
   * C. Plett, A. Katbashev, S. Ehlert, S. Grimme, M. Bursch,
     Phys. Chem. Chem. Phys., 2023, 25, 17860-17868. DOI: 10.1039/D3CP02178E
   
   for DIPRO refer to:
   * J. Kohn, N. Gildemeister, S. Grimme, D. Fazzi, A. Hansen,
     J. Chem. Phys., 2023, just accepted.
   
   for PTB refer to:
   * S. Grimme, M. Mueller, A. Hansen, J. Chem. Phys., 2023, 158, 124111.
     DOI: 10.1063/5.0137838
   
   with help from (in alphabetical order)
   P. Atkinson, C. Bannwarth, F. Bohle, G. Brandenburg, E. Caldeweyher
   M. Checinski, S. Dohm, S. Ehlert, S. Ehrlich, I. Gerasimov, C. Hölzer
   A. Katbashev, J. Kohn, J. Koopman, C. Lavigne, S. Lehtola, F. März, M. Müller,
   F. Musil, H. Neugebauer, J. Pisarek, C. Plett, P. Pracht, F. Pultar,
   J. Seibert, P. Shushkov, S. Spicher, M. Stahn, M. Steiner, T. Strunk,
   J. Stückrath, T. Rose, and J. Unsleber
   
 * started run on 2025/07/16 at 15:48:04.133     
   ID    Z sym.   atoms
    1    1 H      1-13, 38-41, 45-47
    2    7 N      14, 33, 37
    3    6 C      15-17, 19-24, 26-32, 36, 42, 44
    4    8 O      18, 25, 34, 35, 43

           -------------------------------------------------
          |                Calculation Setup                |
           -------------------------------------------------

          program call               : /home/esp/bin/orca_6_1_0/otool_xtb /home/esp/scriptDevelopment/drFrankenstein/11_PCY_CHARMM/04_torsion_scanning/torsion_NH1-CT1-CG321-CG2R61/scans_PCY_conformer_46/PCY_conformer_46_opt/orca_opt_XTB.xyz --grad -c 0 -u 0 -P 1 --namespace /home/esp/scriptDevelopment/drFrankenstein/11_PCY_CHARMM/04_torsion_scanning/torsion_NH1-CT1-CG321-CG2R61/scans_PCY_conformer_46/PCY_conformer_46_opt/orca_opt --input /home/esp/scriptDevelopment/drFrankenstein/11_PCY_CHARMM/04_torsion_scanning/torsion_NH1-CT1-CG321-CG2R61/scans_PCY_conformer_46/PCY_conformer_46_opt/orca_opt_XTB.input.tmp --alpb WATER --acc 0.200000
          calculation namespace      : /home/esp/scriptDevelopment/drFrankenstein/11_PCY_CHARMM/04_torsion_scanning/torsion_NH1-CT1-CG321-CG2R61/scans_PCY_conformer_46/PCY_conformer_46_opt/orca_opt
          coordinate file            : /home/esp/scriptDevelopment/drFrankenstein/11_PCY_CHARMM/04_torsion_scanning/torsion_NH1-CT1-CG321-CG2R61/scans_PCY_conformer_46/PCY_conformer_46_opt/orca_opt_XTB.xyz
          omp threads                :                     1


           -------------------------------------------------
          |                 G F N 2 - x T B                 |
           -------------------------------------------------

        Reference                      10.1021/acs.jctc.8b01176
      * Hamiltonian:
        H0-scaling (s, p, d)           1.850000    2.230000    2.230000
        zeta-weighting                 0.500000
      * Dispersion:
        s8                             2.700000
        a1                             0.520000
        a2                             5.000000
        s9                             5.000000
      * Repulsion:
        kExp                           1.500000    1.000000
        rExp                           1.000000
      * Coulomb:
        alpha                          2.000000
        third order                    shell-resolved
        anisotropic                    true
        a3                             3.000000
        a5                             4.000000
        cn-shift                       1.200000
        cn-exp                         4.000000
        max-rad                        5.000000

      * Solvation model:               ALPB
        Solvent                        WATER
        Parameter file                 internal GFN2-xTB/ALPB
        Dielectric constant                8.0200E+01
        Reference state                gsolv [1 M gas/solution]
        Free energy shift                  1.0808E-03 Eh       6.7819E-01 kcal/mol
        Temperature                        2.9815E+02 K
        Density                            1.0000E+00 kg/L
        Solvent mass                       1.8000E+01 g/mol
        Interaction kernel             P16
        Born radius scaling (c1)           1.4744E+00
        Born radii integrator          GBOBC
        Born offset                        0.0000E+00 a0       0.0000E+00 AA
        H-bond correction              true
        Ion screening                  false
        Surface tension                    1.0000E-05 Eh       1.5569E+01 dyn/cm
        Grid points                               230 per atom

          ...................................................
          :                      SETUP                      :
          :.................................................:
          :  # basis functions                 128          :
          :  # atomic orbitals                 128          :
          :  # shells                           74          :
          :  # electrons                       141          :
          :  max. iterations                   250          :
          :  Hamiltonian                  GFN2-xTB          :
          :  restarted?                      false          :
          :  GBSA solvation                   true          :
          :  PC potential                    false          :
          :  electronic temp.          300.0000000     K    :
          :  accuracy                    0.2000000          :
          :  -> integral cutoff          0.3198970E+02      :
          :  -> integral neglect         0.2000000E-08      :
          :  -> SCF convergence          0.2000000E-06 Eh   :
          :  -> wf. convergence          0.2000000E-04 e    :
          :  Broyden damping             0.4000000          :
          :  net charge                          0          :
          :  unpaired electrons                  0          :
          ...................................................

 iter      E             dE          RMSdq      gap      omega  full diag
   1    -80.7369502 -0.807370E+02  0.484E+00    1.06       0.0  T
   2    -80.9359568 -0.199007E+00  0.253E+00    0.48       1.0  T
   3    -80.9406967 -0.473994E-02  0.116E+00    0.39       1.0  T
   4    -80.8819179  0.587788E-01  0.115E+00    0.06       1.0  T
   5    -80.9431677 -0.612498E-01  0.289E-01    0.61       1.0  T
   6    -80.9454813 -0.231358E-02  0.157E-01    0.45       1.0  T
   7    -80.9455745 -0.931813E-04  0.131E-01    0.41       1.0  T
   8    -80.9458493 -0.274808E-03  0.783E-02    0.30       1.0  T
   9    -80.9459846 -0.135277E-03  0.431E-02    0.24       1.0  T
  10    -80.9460370 -0.524451E-04  0.142E-02    0.21       1.0  T
  11    -80.9460422 -0.521170E-05  0.393E-03    0.20       3.7  T
  12    -80.9460426 -0.421059E-06  0.179E-03    0.20       8.1  T
  13    -80.9460426  0.190164E-08  0.129E-03    0.21      11.3  T
  14    -80.9460427 -0.426665E-07  0.507E-04    0.21      28.7  T
  15    -80.9460427 -0.905004E-08  0.128E-04    0.20     114.3  T
  16    -80.9460427 -0.122242E-09  0.514E-05    0.20     283.9  T

   *** convergence criteria satisfied after 16 iterations ***

         #    Occupation            Energy/Eh            Energy/eV
      -------------------------------------------------------------
         1        2.0000           -0.7800858             -21.2272
       ...           ...                  ...                  ...
        65        2.0000           -0.4169328             -11.3453
        66        2.0000           -0.4086040             -11.1187
        67        2.0000           -0.4065720             -11.0634
        68        2.0000           -0.4043356             -11.0025
        69        2.0000           -0.4013675             -10.9218
        70        2.0000           -0.3950027             -10.7486
        71        0.9813           -0.3292402              -8.9591 (HOMO)
        72        0.0187           -0.3217183              -8.7544 (LUMO)
        73                         -0.2493415              -6.7849
        74                         -0.2373061              -6.4574
        75                         -0.2274522              -6.1893
        76                         -0.2260892              -6.1522
       ...                                ...                  ...
       128                          0.6545213              17.8104
      -------------------------------------------------------------
                  HL-Gap            0.0075219 Eh            0.2047 eV
             Fermi-level           -0.3438003 Eh           -9.3553 eV

 SCC (total)                   0 d,  0 h,  0 min,  0.090 sec
 SCC setup                      ...        0 min,  0.002 sec (  1.810%)
 Dispersion                     ...        0 min,  0.000 sec (  0.454%)
 classical contributions        ...        0 min,  0.000 sec (  0.064%)
 integral evaluation            ...        0 min,  0.006 sec (  6.514%)
 iterations                     ...        0 min,  0.053 sec ( 58.915%)
 molecular gradient             ...        0 min,  0.028 sec ( 31.456%)
 printout                       ...        0 min,  0.001 sec (  0.763%)

         :::::::::::::::::::::::::::::::::::::::::::::::::::::
         ::                     SUMMARY                     ::
         :::::::::::::::::::::::::::::::::::::::::::::::::::::
         :: total energy             -79.895747300884 Eh    ::
         :: total w/o Gsasa/hb       -79.892238229711 Eh    ::
         :: gradient norm              0.041003945857 Eh/a0 ::
         :: HOMO-LUMO gap              0.204680916644 eV    ::
         ::.................................................::
         :: SCC energy               -80.944416622513 Eh    ::
         :: -> isotropic ES            0.185170253088 Eh    ::
         :: -> anisotropic ES         -0.000210497267 Eh    ::
         :: -> anisotropic XC          0.021322893310 Eh    ::
         :: -> dispersion             -0.057500338037 Eh    ::
         :: -> Gsolv                  -0.033384267425 Eh    ::
         ::    -> Gelec               -0.029875196252 Eh    ::
         ::    -> Gsasa                0.001705286807 Eh    ::
         ::    -> Ghb                 -0.006295117679 Eh    ::
         ::    -> Gshift               0.001080759698 Eh    ::
         :: repulsion energy           1.048669321629 Eh    ::
         :: add. restraining           0.000000000000 Eh    ::
         :: total charge               0.000000000000 e     ::
         :::::::::::::::::::::::::::::::::::::::::::::::::::::


Property printout bound to 'properties.out'

           -------------------------------------------------
          | TOTAL ENERGY              -79.895747300884 Eh   |
          | GRADIENT NORM               0.041003945857 Eh/α |
          | HOMO-LUMO GAP               0.204680916644 eV   |
           -------------------------------------------------

------------------------------------------------------------------------
 * finished run on 2025/07/16 at 15:48:04.251     
------------------------------------------------------------------------
 total:
 * wall-time:     0 d,  0 h,  0 min,  0.118 sec
 *  cpu-time:     0 d,  0 h,  0 min,  0.084 sec
 * ratio c/w:     0.717 speedup
 SCF:
 * wall-time:     0 d,  0 h,  0 min,  0.091 sec
 *  cpu-time:     0 d,  0 h,  0 min,  0.073 sec
 * ratio c/w:     0.804 speedup


-------------------------   --------------------
FINAL SINGLE POINT ENERGY       -79.895747300880
-------------------------   --------------------


-------------
DIPOLE MOMENT
-------------
                                X             Y             Z
Total Dipole Moment    :      2.16500      -1.01500       0.17300
                        -----------------------------------------
Magnitude (a.u.)       :      2.39737
Magnitude (Debye)      :      6.09363


------------------
CARTESIAN GRADIENT
------------------

   1   H   :   -0.000499174   -0.000436418    0.000523317
   2   H   :    0.000357279   -0.000265066    0.000367698
   3   H   :    0.000064837   -0.000070798   -0.000167117
   4   H   :    0.001244292    0.000583836   -0.000402011
   5   H   :   -0.000124990   -0.000214164   -0.000310192
   6   H   :    0.000031280    0.000153984   -0.000259982
   7   H   :    0.000235477   -0.000456594   -0.000001925
   8   H   :    0.000260583   -0.000290224   -0.000197827
   9   H   :    0.000245206   -0.000740596   -0.000257134
  10   H   :    0.000297742   -0.000334146   -0.000483038
  11   H   :   -0.000034314    0.000003437   -0.000098533
  12   H   :    0.000975342    0.001003027    0.000226495
  13   H   :    0.000442885   -0.000702939    0.000232134
  14   N   :   -0.000364967    0.001585679   -0.000481070
  15   C   :    0.000163933    0.002045954   -0.000627327
  16   C   :   -0.018604583    0.002828214   -0.006851619
  17   C   :   -0.001921464   -0.001588705    0.000330073
  18   O   :    0.012202076   -0.007112716    0.005717718
  19   C   :   -0.000066785   -0.000237234    0.000944960
  20   C   :    0.000004996   -0.000217666    0.000213996
  21   C   :   -0.000019535   -0.000403788   -0.000255400
  22   C   :   -0.001137673   -0.000623280    0.001584199
  23   C   :   -0.000453221    0.000680237    0.000015349
  24   C   :   -0.000465513    0.000503799    0.000301260
  25   O   :   -0.001605990   -0.001197115   -0.001475897
  26   C   :    0.003439259    0.002722880   -0.000794326
  27   C   :   -0.001267793   -0.000161269   -0.001169857
  28   C   :   -0.000039443   -0.000640197   -0.000980304
  29   C   :   -0.000656008    0.001135296   -0.000236887
  30   C   :   -0.000014297    0.000814089    0.000834784
  31   C   :    0.000309718    0.001629619    0.000949441
  32   C   :    0.003060006   -0.003796395    0.001859380
  33   N   :   -0.009884844    0.014693897   -0.007541730
  34   O   :    0.000357169   -0.010023096   -0.000341106
  35   O   :    0.006837804   -0.000976709    0.006274219
  36   C   :   -0.000963304   -0.002085982    0.000284291
  37   N   :    0.006279795    0.003749392    0.001042149
  38   H   :   -0.000461548    0.000443969   -0.000049075
  39   H   :    0.000849949    0.000747430   -0.000655062
  40   H   :   -0.000262623   -0.000912392    0.000084973
  41   H   :    0.000250141    0.000998886    0.000655059
  42   C   :    0.007298426   -0.011435240    0.005585646
  43   O   :   -0.005157191    0.008258100   -0.004516367
  44   C   :   -0.000724260   -0.000299581    0.000737465
  45   H   :   -0.000330313    0.000268743    0.000086137
  46   H   :   -0.000295682    0.000202455   -0.000830690
  47   H   :    0.000147322    0.000169387    0.000133731

Difference to translation invariance:
           :   -0.0000000000   -0.0000000000   -0.0000000000

Difference to rotation invariance:
           :   -0.0001110978   -0.0001022541   -0.0003587794

Norm of the Cartesian gradient     ...    0.0410039459
RMS gradient                       ...    0.0034531552
MAX gradient                       ...    0.0186045825
------------------------------------------------------------------------------
                         ORCA GEOMETRY RELAXATION STEP
------------------------------------------------------------------------------

Reading the OPT-File                    .... done
Getting information on internals        .... done
Copying old internal coords+grads       .... done
Making the new internal coordinates     .... (2022 redundants) done
Validating the new internal coordinates .... (2022 redundants) done
Calculating the B-matrix                .... done
Calculating the G,G- and P matrices     .... done
Transforming gradient to internals      .... done
Projecting the internal gradient        .... done
Number of atoms                         ....  47
Number of internal coordinates          .... 227
Current Energy                          ....   -79.895747301 Eh
Current gradient norm                   ....     0.041003946 Eh/bohr
Maximum allowed component of the step   ....  0.300
Current trust radius                    ....  0.300
Evaluating the initial hessian          ....  (Almloef) done
Projecting the Hessian                  .... done
Forming the augmented Hessian           .... done
Diagonalizing the augmented Hessian     .... done
Last element of RFO vector              ....  0.951783464
Lowest eigenvalues of augmented Hessian:
 -0.003229783  0.010132466  0.011913339  0.012116376  0.012414317
Length of the computed step             ....  0.322311397
Warning: the length of the step is outside the trust region - taking restricted step instead
The input lambda is                     ....     0.009124
   iter:   5  x=   -0.003810  g=   14.677571 f(x)=     0.040453
   iter:  10  x=   -0.004766  g=    8.050524 f(x)=     0.000000
The output lambda is                    ....    -0.004766 (10 iterations)
The final length of the internal step   ....  0.300000000
Converting the step to Cartesian space:
 Initial RMS(Int)=    0.0199116993
Transforming coordinates:
 Iter   0:  RMS(Cart)=    0.4086330624 RMS(Int)=    0.4196122963
 Iter   5:  RMS(Cart)=    0.0001195459 RMS(Int)=    0.0000393187
 Iter  10:  RMS(Cart)=    0.0000000483 RMS(Int)=    0.0000000155
done
Storing new coordinates                 .... done

                                .--------------------.
          ----------------------|Geometry convergence|-------------------------
          Item                value                   Tolerance       Converged
          ---------------------------------------------------------------------
          RMS gradient        0.0018739891            0.0001000000      NO
          MAX gradient        0.0151880139            0.0003000000      NO
          RMS step            0.0199116993            0.0020000000      NO
          MAX step            0.0947829179            0.0040000000      NO
          -------------------------------------------------------------------------
          ........................................................
          Max(Bonds)      0.0204      Max(Angles)    0.57
          Max(Dihed)        5.43      Max(Improp)    0.00
          ---------------------------------------------------------------------

The optimization has not yet converged - more geometry cycles are needed


    ---------------------------------------------------------------------------
                         Redundant Internal Coordinates
                            (Angstroem and degrees)

        Definition                    Value    dE/dq     Step     New-Value
    ----------------------------------------------------------------------------
     1. B(N  13,H  11)                1.0252 -0.000205  0.0000    1.0252   
     2. B(C  14,N  13)                1.3643 -0.001002  0.0011    1.3655   
     3. B(C  15,C  14)                1.4484 -0.000809  0.0013    1.4497   
     4. B(C  16,C  14)                1.4858 -0.000237  0.0004    1.4863   
     5. B(C  16,H   7)                1.0939  0.000358 -0.0005    1.0934   
     6. B(C  16,H   3)                1.0930  0.001408 -0.0021    1.0910   
     7. B(O  17,C  15)                1.2371 -0.015188  0.0082    1.2453   
     8. B(O  17,H  11)                1.9968 -0.000632  0.0052    2.0020   
     9. B(C  18,C  16)                1.5146  0.000419 -0.0002    1.5144   
    10. B(C  19,C  18)                1.3880  0.000086 -0.0000    1.3880   
    11. B(C  19,H   5)                1.0809  0.000206 -0.0003    1.0806   
    12. B(C  20,C  19)                1.3814  0.000014  0.0001    1.3815   
    13. B(C  20,H   2)                1.0788 -0.000179  0.0002    1.0790   
    14. B(C  21,C  20)                1.3868 -0.000471  0.0005    1.3872   
    15. B(C  22,C  21)                1.3888  0.000067 -0.0000    1.3888   
    16. B(C  22,H   6)                1.0797  0.000483 -0.0007    1.0790   
    17. B(C  23,C  22)                1.3803 -0.000345  0.0004    1.3806   
    18. B(C  23,C  18)                1.3872 -0.000927  0.0008    1.3881   
    19. B(C  23,H   9)                1.0798  0.000651 -0.0009    1.0789   
    20. B(O  24,C  21)                1.3889 -0.002046  0.0022    1.3910   
    21. B(C  25,O  24)                1.4232 -0.003432  0.0037    1.4268   
    22. B(C  25,H   4)                1.0946  0.000013 -0.0000    1.0946   
    23. B(C  25,H   0)                1.0935  0.000715 -0.0011    1.0924   
    24. B(C  26,C  25)                1.5124 -0.000940  0.0011    1.5135   
    25. B(C  27,C  26)                1.3924  0.000216 -0.0002    1.3922   
    26. B(C  27,H   1)                1.0799  0.000487 -0.0007    1.0793   
    27. B(C  28,C  27)                1.3821 -0.000835  0.0007    1.3828   
    28. B(C  28,H  12)                1.0796  0.000863 -0.0012    1.0784   
    29. B(C  29,C  28)                1.3865 -0.000437  0.0004    1.3869   
    30. B(C  29,H   8)                1.0787  0.000762 -0.0011    1.0777   
    31. B(C  30,C  29)                1.3787  0.000270 -0.0002    1.3785   
    32. B(C  30,H  10)                1.0787  0.000104 -0.0001    1.0786   
    33. B(C  31,C  30)                1.3931 -0.001675  0.0014    1.3945   
    34. B(C  31,C  26)                1.3980 -0.002158  0.0017    1.3997   
    35. B(N  32,C  31)                1.4409  0.004351 -0.0051    1.4358   
    36. B(O  33,N  32)                1.2128 -0.009472  0.0052    1.2180   
    37. B(O  34,N  32)                1.2139 -0.009065  0.0049    1.2188   
    38. B(N  36,C  35)                1.4395 -0.001300  0.0015    1.4410   
    39. B(N  36,C  15)                1.3626  0.006530 -0.0055    1.3571   
    40. B(H  37,N  36)                1.0057 -0.000565  0.0007    1.0064   
    41. B(H  38,C  35)                1.0918  0.001195 -0.0017    1.0900   
    42. B(H  39,C  35)                1.0889 -0.000081  0.0001    1.0891   
    43. B(H  40,C  35)                1.0930  0.001095 -0.0016    1.0914   
    44. B(C  41,N  13)                1.3712  0.002017 -0.0019    1.3693   
    45. B(O  42,C  41)                1.2162 -0.010702  0.0053    1.2215   
    46. B(C  43,C  41)                1.5077  0.001280 -0.0016    1.5061   
    47. B(H  44,C  43)                1.0879  0.000398 -0.0006    1.0873   
    48. B(H  45,C  43)                1.0884  0.000883 -0.0013    1.0871   
    49. B(H  46,O  34)                2.3587 -0.000840  0.0204    2.3791   
    50. B(H  46,C  43)                1.0863 -0.000642  0.0007    1.0870   
    51. A(H  11,N  13,C  41)          118.57  0.001638   -0.34    118.23   
    52. A(C  14,N  13,C  41)          131.78 -0.001645    0.28    132.06   
    53. A(H  11,N  13,C  14)          109.60  0.000021    0.05    109.65   
    54. A(N  13,C  14,C  15)          111.54  0.000607    0.02    111.55   
    55. A(N  13,C  14,C  16)          121.08 -0.003573    0.56    121.63   
    56. A(C  15,C  14,C  16)          127.37  0.002964   -0.56    126.81   
    57. A(O  17,C  15,N  36)          121.98 -0.000977    0.08    122.06   
    58. A(C  14,C  15,O  17)          119.86 -0.000171    0.12    119.98   
    59. A(C  14,C  15,N  36)          118.15  0.001149   -0.20    117.95   
    60. A(H   3,C  16,H   7)          107.72 -0.000280    0.00    107.72   
    61. A(H   3,C  16,C  14)          111.07  0.001112   -0.34    110.73   
    62. A(C  14,C  16,C  18)          111.81 -0.001206    0.39    112.20   
    63. A(H   3,C  16,C  18)          110.29 -0.000302   -0.13    110.16   
    64. A(H   7,C  16,C  14)          108.57 -0.000431    0.17    108.74   
    65. A(H   7,C  16,C  18)          107.20  0.001135   -0.09    107.12   
    66. A(C  16,C  18,C  23)          119.81  0.000122   -0.01    119.80   
    67. A(C  19,C  18,C  23)          119.13  0.000128   -0.04    119.09   
    68. A(C  16,C  18,C  19)          121.02 -0.000250    0.07    121.10   
    69. A(C  18,C  19,C  20)          120.61  0.000217   -0.03    120.58   
    70. A(H   5,C  19,C  18)          119.89 -0.000328    0.04    119.94   
    71. A(H   5,C  19,C  20)          119.44  0.000130   -0.03    119.41   
    72. A(H   2,C  20,C  21)          119.61  0.000212   -0.03    119.58   
    73. A(C  19,C  20,C  21)          119.74 -0.000315    0.05    119.80   
    74. A(H   2,C  20,C  19)          120.61  0.000102   -0.01    120.60   
    75. A(C  22,C  21,O  24)          119.54 -0.001455    0.20    119.74   
    76. A(C  20,C  21,O  24)          120.51  0.001621   -0.19    120.31   
    77. A(C  20,C  21,C  22)          119.91 -0.000157   -0.00    119.91   
    78. A(C  21,C  22,C  23)          119.83  0.000489   -0.06    119.77   
    79. A(H   6,C  22,C  23)          120.61 -0.000409    0.05    120.67   
    80. A(H   6,C  22,C  21)          119.52 -0.000063   -0.00    119.51   
    81. A(C  18,C  23,C  22)          120.55 -0.000325    0.06    120.61   
    82. A(H   9,C  23,C  22)          119.60  0.000263   -0.03    119.57   
    83. A(H   9,C  23,C  18)          119.80  0.000060   -0.00    119.79   
    84. A(C  21,O  24,C  25)          111.69  0.000288    0.26    111.95   
    85. A(H   0,C  25,H   4)          109.57  0.000096   -0.03    109.54   
    86. A(O  24,C  25,C  26)          109.74  0.000036    0.07    109.81   
    87. A(H   4,C  25,C  26)          111.94 -0.001587    0.41    112.35   
    88. A(H   0,C  25,C  26)          110.11  0.000999   -0.31    109.80   
    89. A(H   4,C  25,O  24)          110.26  0.000956   -0.07    110.19   
    90. A(H   0,C  25,O  24)          105.00 -0.000404   -0.11    104.89   
    91. A(C  27,C  26,C  31)          117.43  0.000723   -0.09    117.35   
    92. A(C  25,C  26,C  31)          125.50 -0.002941    0.41    125.91   
    93. A(C  25,C  26,C  27)          116.94  0.002216   -0.30    116.64   
    94. A(C  26,C  27,C  28)          121.83 -0.000599    0.08    121.90   
    95. A(H   1,C  27,C  28)          120.02 -0.000019    0.02    120.04   
    96. A(H   1,C  27,C  26)          118.14  0.000614   -0.09    118.05   
    97. A(C  27,C  28,C  29)          119.98 -0.000206    0.02    120.00   
    98. A(H  12,C  28,C  29)          120.19  0.000069   -0.00    120.19   
    99. A(H  12,C  28,C  27)          119.82  0.000137   -0.01    119.81   
   100. A(C  28,C  29,C  30)          119.40  0.000120   -0.02    119.38   
   101. A(H   8,C  29,C  30)          120.10  0.000254   -0.04    120.06   
   102. A(H   8,C  29,C  28)          120.50 -0.000374    0.06    120.57   
   103. A(C  29,C  30,C  31)          120.48 -0.000176    0.02    120.50   
   104. A(H  10,C  30,C  31)          118.29  0.000091   -0.01    118.28   
   105. A(H  10,C  30,C  29)          121.21  0.000088   -0.01    121.20   
   106. A(C  30,C  31,N  32)          115.38  0.001034   -0.12    115.26   
   107. A(C  26,C  31,N  32)          123.72 -0.001185    0.14    123.86   
   108. A(C  26,C  31,C  30)          120.85  0.000131    0.00    120.85   
   109. A(O  33,N  32,O  34)          123.89  0.005266   -0.57    123.32   
   110. A(C  31,N  32,O  34)          116.34 -0.003226    0.42    116.76   
   111. A(C  31,N  32,O  33)          119.74 -0.002105    0.31    120.05   
   112. A(N  36,C  35,H  38)          110.44  0.000917   -0.17    110.27   
   113. A(H  39,C  35,H  40)          109.23  0.000193   -0.02    109.21   
   114. A(H  38,C  35,H  40)          109.07 -0.000518    0.05    109.12   
   115. A(N  36,C  35,H  40)          111.28  0.000911   -0.17    111.11   
   116. A(H  38,C  35,H  39)          109.52  0.000226   -0.01    109.51   
   117. A(N  36,C  35,H  39)          107.27 -0.001743    0.32    107.59   
   118. A(C  35,N  36,H  37)          117.59  0.000846   -0.11    117.48   
   119. A(C  15,N  36,H  37)          119.69  0.001114   -0.14    119.55   
   120. A(C  15,N  36,C  35)          121.67 -0.001999    0.31    121.97   
   121. A(O  42,C  41,C  43)          124.41  0.001144   -0.12    124.29   
   122. A(N  13,C  41,C  43)          111.66 -0.001199    0.10    111.77   
   123. A(N  13,C  41,O  42)          123.92  0.000052    0.02    123.94   
   124. A(H  45,C  43,H  46)          109.64 -0.000346    0.05    109.70   
   125. A(H  44,C  43,H  46)          108.77  0.000018   -0.02    108.75   
   126. A(C  41,C  43,H  46)          109.73  0.000247   -0.02    109.71   
   127. A(H  44,C  43,H  45)          108.74 -0.000227    0.05    108.79   
   128. A(C  41,C  43,H  45)          110.07  0.000071   -0.02    110.05   
   129. A(C  41,C  43,H  44)          109.87  0.000230   -0.04    109.83   
   130. D(C  16,C  14,N  13,C  41)      3.16 -0.001147    1.62      4.77   
   131. D(C  15,C  14,N  13,C  41)   -175.31 -0.001129    1.23   -174.08   
   132. D(C  16,C  14,N  13,H  11)   -179.55 -0.000729    1.38   -178.17   
   133. D(C  15,C  14,N  13,H  11)      1.98 -0.000711    0.99      2.97   
   134. D(N  36,C  15,C  14,N  13)    175.28 -0.000372    0.96    176.24   
   135. D(O  17,C  15,C  14,C  16)    176.31 -0.000193    0.42    176.72   
   136. D(N  36,C  15,C  14,C  16)     -3.07 -0.000226    0.52     -2.55   
   137. D(O  17,C  15,C  14,N  13)     -5.34 -0.000340    0.86     -4.49   
   138. D(H   7,C  16,C  14,C  15)   -131.88 -0.000818    1.80   -130.07   
   139. D(C  18,C  16,C  14,N  13)    -68.15 -0.001142    1.11    -67.05   
   140. D(H   3,C  16,C  14,C  15)    -13.62 -0.000773    1.71    -11.90   
   141. D(H   3,C  16,C  14,N  13)    168.18 -0.000689    1.24    169.42   
   142. D(H   7,C  16,C  14,N  13)     49.91 -0.000734    1.34     51.25   
   143. D(C  19,C  18,C  16,H   3)     94.11 -0.000863    3.00     97.10   
   144. D(C  19,C  18,C  16,H   7)   -148.88 -0.000710    2.88   -146.00   
   145. D(C  19,C  18,C  16,C  14)    -30.01 -0.001216    3.26    -26.75   
   146. D(C  23,C  18,C  16,H   7)     28.94 -0.000701    3.57     32.50   
   147. D(C  23,C  18,C  16,H   3)    -88.08 -0.000854    3.68    -84.39   
   148. D(C  20,C  19,C  18,C  16)    173.77  0.000515    0.12    173.89   
   149. D(H   5,C  19,C  18,C  23)    178.62  0.000023   -0.17    178.45   
   150. D(C  20,C  19,C  18,C  23)     -4.06  0.000506   -0.56     -4.62   
   151. D(H   5,C  19,C  18,C  16)     -3.55  0.000032    0.51     -3.04   
   152. D(C  21,C  20,C  19,C  18)      0.66 -0.000455    0.81      1.47   
   153. D(C  21,C  20,C  19,H   5)    177.99  0.000013    0.43    178.42   
   154. D(H   2,C  20,C  19,C  18)   -176.90 -0.000407    0.26   -176.64   
   155. D(H   2,C  20,C  19,H   5)      0.43  0.000061   -0.12      0.31   
   156. D(O  24,C  21,C  20,C  19)   -174.20 -0.000260   -0.55   -174.75   
   157. D(O  24,C  21,C  20,H   2)      3.38 -0.000310   -0.00      3.38   
   158. D(C  22,C  21,C  20,C  19)      3.37 -0.000057   -0.28      3.09   
   159. D(C  22,C  21,C  20,H   2)   -179.05 -0.000106    0.26   -178.78   
   160. D(H   6,C  22,C  21,C  20)    178.35 -0.000026   -0.07    178.28   
   161. D(C  23,C  22,C  21,O  24)    173.64  0.000722   -0.23    173.41   
   162. D(C  23,C  22,C  21,C  20)     -3.95  0.000446   -0.48     -4.44   
   163. D(H   6,C  22,C  21,O  24)     -4.06  0.000250    0.18     -3.88   
   164. D(C  18,C  23,C  22,C  21)      0.51 -0.000381    0.74      1.24   
   165. D(C  18,C  23,C  22,H   6)    178.18  0.000104    0.32    178.50   
   166. D(H   9,C  23,C  22,C  21)   -176.91 -0.000345    0.17   -176.74   
   167. D(H   9,C  23,C  22,H   6)      0.76  0.000140   -0.25      0.51   
   168. D(C  22,C  23,C  18,C  19)      3.47 -0.000103   -0.22      3.26   
   169. D(C  22,C  23,C  18,C  16)   -174.39 -0.000103   -0.89   -175.28   
   170. D(H   9,C  23,C  18,C  19)   -179.11 -0.000134    0.35   -178.76   
   171. D(H   9,C  23,C  18,C  16)      3.03 -0.000135   -0.32      2.70   
   172. D(C  25,O  24,C  21,C  22)    -94.79 -0.002543    5.17    -89.62   
   173. D(C  25,O  24,C  21,C  20)     82.79 -0.002310    5.43     88.22   
   174. D(C  26,C  25,O  24,C  21)     61.73 -0.002810    5.38     67.11   
   175. D(H   4,C  25,O  24,C  21)    -62.02 -0.001478    4.86    -57.16   
   176. D(H   0,C  25,O  24,C  21)   -179.96 -0.001843    4.99   -174.96   
   177. D(C  31,C  26,C  25,H   4)     16.17 -0.000723    1.97     18.14   
   178. D(C  31,C  26,C  25,H   0)    138.31 -0.000983    2.00    140.31   
   179. D(C  27,C  26,C  25,O  24)     69.15 -0.000873    2.12     71.27   
   180. D(C  27,C  26,C  25,H   4)   -168.10 -0.000714    2.36   -165.73   
   181. D(C  27,C  26,C  25,H   0)    -45.95 -0.000974    2.39    -43.56   
   182. D(C  28,C  27,C  26,C  31)      1.32  0.000253   -0.31      1.01   
   183. D(C  28,C  27,C  26,C  25)   -174.77  0.000414   -0.69   -175.46   
   184. D(H   1,C  27,C  26,C  31)   -179.84  0.000033    0.01   -179.83   
   185. D(H   1,C  27,C  26,C  25)      4.07  0.000193   -0.37      3.70   
   186. D(C  29,C  28,C  27,C  26)     -0.23 -0.000026    0.02     -0.21   
   187. D(C  29,C  28,C  27,H   1)   -179.05  0.000192   -0.30   -179.35   
   188. D(H  12,C  28,C  27,C  26)    179.35 -0.000094    0.13    179.48   
   189. D(H  12,C  28,C  27,H   1)      0.53  0.000123   -0.19      0.34   
   190. D(C  30,C  29,C  28,H  12)    179.26 -0.000061    0.07    179.33   
   191. D(H   8,C  29,C  28,C  27)    179.08  0.000011   -0.00    179.08   
   192. D(H   8,C  29,C  28,H  12)     -0.49  0.000080   -0.11     -0.61   
   193. D(C  30,C  29,C  28,C  27)     -1.16 -0.000130    0.18     -0.99   
   194. D(C  31,C  30,C  29,C  28)      1.42  0.000077   -0.08      1.35   
   195. D(C  31,C  30,C  29,H   8)   -178.82 -0.000065    0.10   -178.72   
   196. D(H  10,C  30,C  29,C  28)   -179.88  0.000271   -0.35   -180.22   
   197. D(H  10,C  30,C  29,H   8)     -0.12  0.000129   -0.17     -0.29   
   198. D(N  32,C  31,C  30,C  29)   -177.75  0.000656   -0.92   -178.67   
   199. D(N  32,C  31,C  30,H  10)      3.51  0.000467   -0.66      2.85   
   200. D(C  26,C  31,C  30,C  29)     -0.30  0.000153   -0.23     -0.53   
   201. D(C  26,C  31,C  30,H  10)   -179.04 -0.000036    0.04   -179.00   
   202. D(N  32,C  31,C  26,C  27)    176.18 -0.000798    1.16    177.33   
   203. D(N  32,C  31,C  26,C  25)     -8.10 -0.000733    1.54     -6.56   
   204. D(C  30,C  31,C  26,C  27)     -1.05 -0.000314    0.41     -0.64   
   205. D(C  30,C  31,C  26,C  25)    174.67 -0.000249    0.79    175.46   
   206. D(O  34,N  32,C  31,C  30)     30.51  0.001359   -3.28     27.23   
   207. D(O  34,N  32,C  31,C  26)   -146.86  0.001838   -3.99   -150.85   
   208. D(O  33,N  32,C  31,C  30)   -151.06 -0.001124    2.68   -148.38   
   209. D(O  33,N  32,C  31,C  26)     31.57 -0.000645    1.97     33.54   
   210. D(H  37,N  36,C  35,H  39)   -176.24  0.000036   -0.23   -176.47   
   211. D(H  37,N  36,C  35,H  38)     64.47  0.000293   -0.32     64.16   
   212. D(C  15,N  36,C  35,H  40)    111.42 -0.000358    0.13    111.55   
   213. D(C  15,N  36,C  35,H  39)     -8.00 -0.000033    0.05     -7.95   
   214. D(C  15,N  36,C  35,H  38)   -127.29  0.000224   -0.04   -127.33   
   215. D(H  37,N  36,C  15,O  17)    171.14 -0.000172    0.35    171.49   
   216. D(H  37,N  36,C  15,C  14)     -9.50 -0.000133    0.25     -9.25   
   217. D(C  35,N  36,C  15,O  17)      3.14 -0.000060    0.06      3.20   
   218. D(C  35,N  36,C  15,C  14)   -177.50 -0.000021   -0.04   -177.54   
   219. D(C  43,C  41,N  13,C  14)    178.98  0.000208    0.11    179.09   
   220. D(C  43,C  41,N  13,H  11)      1.88 -0.000196    0.36      2.24   
   221. D(O  42,C  41,N  13,C  14)     -1.45 -0.000268    0.89     -0.56   
   222. D(O  42,C  41,N  13,H  11)   -178.54 -0.000672    1.14   -177.41   
   223. D(H  46,C  43,C  41,N  13)   -176.38 -0.000602    0.75   -175.63   
   224. D(H  45,C  43,C  41,O  42)   -116.70  0.000108   -0.08   -116.78   
   225. D(H  45,C  43,C  41,N  13)     62.87 -0.000376    0.70     63.58   
   226. D(H  44,C  43,C  41,O  42)    123.59  0.000199   -0.10    123.49   
   227. D(H  44,C  43,C  41,N  13)    -56.84 -0.000285    0.68    -56.16   
    ----------------------------------------------------------------------------

Geometry step timings:
Preparation and reading OPT file:      0.000 s ( 0.137 %)
Internal coordinates            :      0.000 s ( 0.183 %)
B/P matrices and projection     :      0.005 s (32.456 %)
Hessian update/contruction      :      0.002 s (13.828 %)
Making the step                 :      0.007 s (45.434 %)
Converting the step to Cartesian:      0.001 s ( 3.684 %)
Storing new data                :      0.000 s ( 0.287 %)
Checking convergence            :      0.000 s ( 0.261 %)
Final printing                  :      0.001 s ( 3.730 %)
Total time                      :      0.015 s

Time for energy+gradient        :      0.123 s
Time for complete geometry iter :      0.140 s

         *************************************************************
         *                GEOMETRY OPTIMIZATION CYCLE   2            *
         *************************************************************
---------------------------------
CARTESIAN COORDINATES (ANGSTROEM)
---------------------------------
  H    -2.250321   -0.638067    4.378982
  H    -0.822104   -2.579860    4.110607
  H    -1.261219    2.681954    2.528461
  H     1.482221    2.525362   -1.887486
  H    -2.712867    0.334472    2.953965
  H    -0.717942    3.483223    0.265921
  H     0.770211   -0.980220    1.726084
  H     0.435995    1.185855   -2.356076
  H    -1.020332   -4.825780    0.482223
  H     1.262415   -0.207333   -0.560687
  H    -2.262194   -2.959464   -0.570499
  H    -2.444247    3.398436   -2.663845
  H    -0.320438   -4.630628    2.850187
  N    -1.867985    2.625704   -2.313737
  C    -0.570241    3.032381   -2.199236
  C    -0.417316    4.433276   -2.535688
  C     0.489664    2.094066   -1.749621
  O    -1.394940    5.079158   -2.957189
  C     0.280229    1.677283   -0.310942
  C    -0.386960    2.504166    0.581436
  C    -0.692687    2.061957    1.852727
  C    -0.303643    0.792125    2.251040
  C     0.448734   -0.003953    1.397682
  C     0.725908    0.435723    0.119435
  O    -0.707298    0.291666    3.482393
  C    -1.970569   -0.359810    3.360327
  C    -1.817469   -1.601815    2.507965
  C    -1.139359   -2.672981    3.083243
  C    -0.854854   -3.824666    2.372874
  C    -1.250530   -3.938326    1.048595
  C    -1.944417   -2.903536    0.458663
  C    -2.224507   -1.739666    1.174053
  N    -2.976991   -0.747876    0.456394
  O    -2.801046    0.434376    0.690651
  O    -3.710616   -1.149999   -0.431235
  C     1.046174    6.391395   -2.649869
  N     0.809951    4.993830   -2.390078
  H     1.539626    4.477576   -1.927640
  H     1.876733    6.511067   -3.345550
  H     0.139458    6.801866   -3.091937
  H     1.271742    6.929994   -1.727850
  C    -2.481784    1.442250   -1.996934
  O    -1.896106    0.477757   -1.529183
  C    -3.959976    1.475952   -2.281730
  H    -4.418598    2.307235   -1.751700
  H    -4.132436    1.602443   -3.347612
  H    -4.418058    0.549462   -1.941575

----------------------------
CARTESIAN COORDINATES (A.U.)
----------------------------
  NO LB    ZA    FRAG    MASS        X           Y           Z
   0 H   1.0000    0     1.008   -4.252491   -1.205771    8.275078
   1 H   1.0000    0     1.008   -1.553552   -4.875230    7.767922
   2 H   1.0000    0     1.008   -2.383358    5.068159    4.778099
   3 H   1.0000    0     1.008    2.800991    4.772243   -3.566831
   4 H   1.0000    0     1.008   -5.126575    0.632061    5.582184
   5 H   1.0000    0     1.008   -1.356714    6.582337    0.502518
   6 H   1.0000    0     1.008    1.455487   -1.852347    3.261827
[...]
  26 C   6.0000    0    12.011   -3.430128   -2.939080    4.885020
  27 C   6.0000    0    12.011   -2.145359   -5.054712    5.773004
  28 C   6.0000    0    12.011   -1.904314   -7.227967    4.340278
  29 C   6.0000    0    12.011   -2.977471   -7.347579    1.950767
  30 C   6.0000    0    12.011   -4.295451   -5.296002    1.036641
  31 C   6.0000    0    12.011   -4.520056   -3.092367    2.473642
  32 N   7.0000    0    14.007   -5.966125   -1.116384    1.353586
  33 O   8.0000    0    15.999   -5.621766    1.084310    1.979612
  34 O   8.0000    0    15.999   -7.556597   -1.716496   -0.217319
  35 C   6.0000    0    12.011    1.610143   12.288905   -4.726607
  36 N   7.0000    0    14.007    1.324425    9.608015   -4.331783
  37 H   1.0000    0     1.008    2.782422    8.688305   -3.526394
  38 H   1.0000    0     1.008    3.197694   12.652132   -5.986466
  39 H   1.0000    0     1.008   -0.124034   12.990248   -5.582623
  40 H   1.0000    0     1.008    1.925169   13.258818   -2.935127
  41 C   6.0000    0    12.011   -4.332855    2.377803   -4.199394
  42 O   8.0000    0    15.999   -3.087730    0.586789   -3.427788
  43 C   6.0000    0    12.011   -7.094515    2.231628   -4.848794
  44 H   1.0000    0     1.008   -8.125609    3.726348   -3.889263
  45 H   1.0000    0     1.008   -7.346761    2.443896   -6.876970
  46 H   1.0000    0     1.008   -7.838383    0.412455   -4.252058

      -----------------------------------------------------------      
     |                   =====================                   |     
     |                           x T B                           |     
     |                   =====================                   |     
     |                         S. Grimme                         |     
     |          Mulliken Center for Theoretical Chemistry        |     
     |                    University of Bonn                     |     
      -----------------------------------------------------------      

   * xtb version 6.7.1 (edcfbbe) compiled by 'albert@albert-system' on 2024-07-22

   xtb is free software: you can redistribute it and/or modify it under
   the terms of the GNU Lesser General Public License as published by
   the Free Software Foundation, either version 3 of the License, or
   (at your option) any later version.
   
   xtb is distributed in the hope that it will be useful,
   but WITHOUT ANY WARRANTY; without even the implied warranty of
   MERCHANTABILITY or FITNESS FOR A PARTICULAR PURPOSE.  See the
   GNU Lesser General Public License for more details.
   
   Cite this work as:
   * C. Bannwarth, E. Caldeweyher, S. Ehlert, A. Hansen, P. Pracht,
     J. Seibert, S. Spicher, S. Grimme, WIREs Comput. Mol. Sci., 2020, 11,
     e01493. DOI: 10.1002/wcms.1493
   
   for GFN2-xTB:
   * C. Bannwarth, S. Ehlert and S. Grimme., J. Chem. Theory Comput., 2019,
     15, 1652-1671. DOI: 10.1021/acs.jctc.8b01176
   for GFN1-xTB:
   * S. Grimme, C. Bannwarth, P. Shushkov, J. Chem. Theory Comput., 2017,
     13, 1989-2009. DOI: 10.1021/acs.jctc.7b00118
   for GFN0-xTB:
   * P. Pracht, E. Caldeweyher, S. Ehlert, S. Grimme, ChemRxiv, 2019, preprint.
     DOI: 10.26434/chemrxiv.8326202.v1
   for GFN-FF:
   * S. Spicher and S. Grimme, Angew. Chem. Int. Ed., 2020, 59, 15665-15673.
     DOI: 10.1002/anie.202004239
   
   for ALPB and GBSA implicit solvation:
   * S. Ehlert, M. Stahn, S. Spicher, S. Grimme, J. Chem. Theory Comput.,
     2021, 17, 4250-4261. DOI: 10.1021/acs.jctc.1c00471
   
   for ddCOSMO and CPCM-X implicit solvation:
   * M. Stahn, S. Ehlert, S. Grimme, J. Phys. Chem. A,
     2023, XX, XXXX-XXXX. DOI: 10.1021/acs.jpca.3c04382
   
   for DFT-D4:
   * E. Caldeweyher, C. Bannwarth and S. Grimme, J. Chem. Phys., 2017,
     147, 034112. DOI: 10.1063/1.4993215
   * E. Caldeweyher, S. Ehlert, A. Hansen, H. Neugebauer, S. Spicher,
     C. Bannwarth and S. Grimme, J. Chem. Phys., 2019, 150, 154122.
     DOI: 10.1063/1.5090222
   * E. Caldeweyher, J.-M. Mewes, S. Ehlert and S. Grimme, Phys. Chem. Chem. Phys.
     2020, 22, 8499-8512. DOI: 10.1039/D0CP00502A
   
   for sTDA-xTB:
   * S. Grimme and C. Bannwarth, J. Chem. Phys., 2016, 145, 054103.
     DOI: 10.1063/1.4959605
   
   in the mass-spec context:
   * V. Asgeirsson, C. Bauer and S. Grimme, Chem. Sci., 2017, 8, 4879.
     DOI: 10.1039/c7sc00601b
   * J. Koopman and S. Grimme, ACS Omega 2019, 4, 12, 15120-15133.
     DOI: 10.1021/acsomega.9b02011
   
   for metadynamics refer to:
   * S. Grimme, J. Chem. Theory Comput., 2019, 155, 2847-2862
     DOI: 10.1021/acs.jctc.9b00143
   
   for SPH calculations refer to:
   * S. Spicher and S. Grimme, J. Chem. Theory Comput., 2021, 17, 1701-1714
     DOI: 10.1021/acs.jctc.0c01306
   
   for ONIOM refer to:
   * C. Plett, A. Katbashev, S. Ehlert, S. Grimme, M. Bursch,
     Phys. Chem. Chem. Phys., 2023, 25, 17860-17868. DOI: 10.1039/D3CP02178E
   
   for DIPRO refer to:
   * J. Kohn, N. Gildemeister, S. Grimme, D. Fazzi, A. Hansen,
     J. Chem. Phys., 2023, just accepted.
   
   for PTB refer to:
   * S. Grimme, M. Mueller, A. Hansen, J. Chem. Phys., 2023, 158, 124111.
     DOI: 10.1063/5.0137838
   
   with help from (in alphabetical order)
   P. Atkinson, C. Bannwarth, F. Bohle, G. Brandenburg, E. Caldeweyher
   M. Checinski, S. Dohm, S. Ehlert, S. Ehrlich, I. Gerasimov, C. Hölzer
   A. Katbashev, J. Kohn, J. Koopman, C. Lavigne, S. Lehtola, F. März, M. Müller,
   F. Musil, H. Neugebauer, J. Pisarek, C. Plett, P. Pracht, F. Pultar,
   J. Seibert, P. Shushkov, S. Spicher, M. Stahn, M. Steiner, T. Strunk,
   J. Stückrath, T. Rose, and J. Unsleber
   
 * started run on 2025/07/16 at 15:48:06.166     
   ID    Z sym.   atoms
    1    1 H      1-13, 38-41, 45-47
    2    7 N      14, 33, 37
    3    6 C      15-17, 19-24, 26-32, 36, 42, 44
    4    8 O      18, 25, 34, 35, 43

           -------------------------------------------------
          |                Calculation Setup                |
           -------------------------------------------------

          program call               : /home/esp/bin/orca_6_1_0/otool_xtb /home/esp/scriptDevelopment/drFrankenstein/11_PCY_CHARMM/04_torsion_scanning/torsion_NH1-CT1-CG321-CG2R61/scans_PCY_conformer_46/PCY_conformer_46_opt/orca_opt_XTB.xyz --grad -c 0 -u 0 -P 1 --namespace /home/esp/scriptDevelopment/drFrankenstein/11_PCY_CHARMM/04_torsion_scanning/torsion_NH1-CT1-CG321-CG2R61/scans_PCY_conformer_46/PCY_conformer_46_opt/orca_opt --input /home/esp/scriptDevelopment/drFrankenstein/11_PCY_CHARMM/04_torsion_scanning/torsion_NH1-CT1-CG321-CG2R61/scans_PCY_conformer_46/PCY_conformer_46_opt/orca_opt_XTB.input.tmp --alpb WATER --acc 0.200000
          calculation namespace      : /home/esp/scriptDevelopment/drFrankenstein/11_PCY_CHARMM/04_torsion_scanning/torsion_NH1-CT1-CG321-CG2R61/scans_PCY_conformer_46/PCY_conformer_46_opt/orca_opt
          coordinate file            : /home/esp/scriptDevelopment/drFrankenstein/11_PCY_CHARMM/04_torsion_scanning/torsion_NH1-CT1-CG321-CG2R61/scans_PCY_conformer_46/PCY_conformer_46_opt/orca_opt_XTB.xyz
          omp threads                :                     1


           -------------------------------------------------
          |                 G F N 2 - x T B                 |
           -------------------------------------------------

        Reference                      10.1021/acs.jctc.8b01176
      * Hamiltonian:
        H0-scaling (s, p, d)           1.850000    2.230000    2.230000
        zeta-weighting                 0.500000
      * Dispersion:
        s8                             2.700000
        a1                             0.520000
        a2                             5.000000
        s9                             5.000000
      * Repulsion:
        kExp                           1.500000    1.000000
        rExp                           1.000000
      * Coulomb:
        alpha                          2.000000
        third order                    shell-resolved
        anisotropic                    true
        a3                             3.000000
        a5                             4.000000
        cn-shift                       1.200000
        cn-exp                         4.000000
        max-rad                        5.000000

      * Solvation model:               ALPB
        Solvent                        WATER
        Parameter file                 internal GFN2-xTB/ALPB
        Dielectric constant                8.0200E+01
        Reference state                gsolv [1 M gas/solution]
        Free energy shift                  1.0808E-03 Eh       6.7819E-01 kcal/mol
        Temperature                        2.9815E+02 K
        Density                            1.0000E+00 kg/L
        Solvent mass                       1.8000E+01 g/mol
        Interaction kernel             P16
        Born radius scaling (c1)           1.4744E+00
        Born radii integrator          GBOBC
        Born offset                        0.0000E+00 a0       0.0000E+00 AA
        H-bond correction              true
        Ion screening                  false
        Surface tension                    1.0000E-05 Eh       1.5569E+01 dyn/cm
        Grid points                               230 per atom
q/qsh data taken from xtbrestart
CAMM data taken from xtbrestart

          ...................................................
          :                      SETUP                      :
          :.................................................:
          :  # basis functions                 128          :
          :  # atomic orbitals                 128          :
          :  # shells                           74          :
          :  # electrons                       141          :
          :  max. iterations                   250          :
          :  Hamiltonian                  GFN2-xTB          :
          :  restarted?                       true          :
          :  GBSA solvation                   true          :
          :  PC potential                    false          :
          :  electronic temp.          300.0000000     K    :
          :  accuracy                    0.2000000          :
          :  -> integral cutoff          0.3198970E+02      :
          :  -> integral neglect         0.2000000E-08      :
          :  -> SCF convergence          0.2000000E-06 Eh   :
          :  -> wf. convergence          0.2000000E-04 e    :
          :  Broyden damping             0.4000000          :
          :  net charge                          0          :
          :  unpaired electrons                  0          :
          ...................................................

 iter      E             dE          RMSdq      gap      omega  full diag
   1    -80.9422416 -0.809422E+02  0.595E-03    0.15       0.0  T
   2    -80.9422417 -0.314565E-07  0.346E-03    0.15       4.2  T
   3    -80.9422413  0.337868E-06  0.269E-03    0.15       5.4  T
   4    -80.9422416 -0.283182E-06  0.117E-03    0.15      12.4  T
   5    -80.9422417 -0.697176E-07  0.120E-04    0.15     121.6  T
   6    -80.9422417 -0.193950E-09  0.627E-05    0.15     232.5  T

   *** convergence criteria satisfied after 6 iterations ***

         #    Occupation            Energy/Eh            Energy/eV
      -------------------------------------------------------------
         1        2.0000           -0.7732471             -21.0411
       ...           ...                  ...                  ...
        65        2.0000           -0.4158018             -11.3145
        66        2.0000           -0.4089206             -11.1273
        67        2.0000           -0.4058187             -11.0429
        68        2.0000           -0.4035965             -10.9824
        69        2.0000           -0.4028669             -10.9626
        70        2.0000           -0.3957638             -10.7693
        71        0.9473           -0.3302577              -8.9868 (HOMO)
        72        0.0527           -0.3247678              -8.8374 (LUMO)
        73                         -0.2508540              -6.8261
        74                         -0.2366116              -6.4385
        75                         -0.2277670              -6.1979
        76                         -0.2260991              -6.1525
       ...                                ...                  ...
       128                          0.6538296              17.7916
      -------------------------------------------------------------
                  HL-Gap            0.0054899 Eh            0.1494 eV
             Fermi-level           -0.3452617 Eh           -9.3950 eV

 SCC (total)                   0 d,  0 h,  0 min,  0.078 sec
 SCC setup                      ...        0 min,  0.001 sec (  1.567%)
 Dispersion                     ...        0 min,  0.001 sec (  0.661%)
 classical contributions        ...        0 min,  0.000 sec (  0.094%)
 integral evaluation            ...        0 min,  0.008 sec (  9.982%)
 iterations                     ...        0 min,  0.037 sec ( 47.497%)
 molecular gradient             ...        0 min,  0.031 sec ( 39.241%)
 printout                       ...        0 min,  0.001 sec (  0.925%)

         :::::::::::::::::::::::::::::::::::::::::::::::::::::
         ::                     SUMMARY                     ::
         :::::::::::::::::::::::::::::::::::::::::::::::::::::
         :: total energy             -79.897153454495 Eh    ::
         :: total w/o Gsasa/hb       -79.893284633646 Eh    ::
         :: gradient norm              0.000417638851 Eh/a0 ::
         :: HOMO-LUMO gap              0.149388452058 eV    ::
         ::.................................................::
         :: SCC energy               -80.940778390029 Eh    ::
         :: -> isotropic ES            0.193978967468 Eh    ::
         :: -> anisotropic ES         -0.002253368203 Eh    ::
         :: -> anisotropic XC          0.021542814920 Eh    ::
         :: -> dispersion             -0.056583958669 Eh    ::
         :: -> Gsolv                  -0.037540113197 Eh    ::
         ::    -> Gelec               -0.033671292347 Eh    ::
         ::    -> Gsasa                0.001655735765 Eh    ::
         ::    -> Ghb                 -0.006605316312 Eh    ::
         ::    -> Gshift               0.001080759698 Eh    ::
         :: repulsion energy           1.043624935534 Eh    ::
         :: add. restraining           0.000000000000 Eh    ::
         :: total charge               0.000000000000 e     ::
         :::::::::::::::::::::::::::::::::::::::::::::::::::::


Property printout bound to 'properties.out'

           -------------------------------------------------
          | TOTAL ENERGY              -79.897153454495 Eh   |
          | GRADIENT NORM               0.000417638851 Eh/α |
          | HOMO-LUMO GAP               0.149388452058 eV   |
           -------------------------------------------------

------------------------------------------------------------------------
 * finished run on 2025/07/16 at 15:48:06.279     
------------------------------------------------------------------------
 total:
 * wall-time:     0 d,  0 h,  0 min,  0.112 sec
 *  cpu-time:     0 d,  0 h,  0 min,  0.071 sec
 * ratio c/w:     0.639 speedup
 SCF:
 * wall-time:     0 d,  0 h,  0 min,  0.079 sec
 *  cpu-time:     0 d,  0 h,  0 min,  0.057 sec
 * ratio c/w:     0.731 speedup


-------------------------   --------------------
FINAL SINGLE POINT ENERGY       -79.897153454500
-------------------------   --------------------


-------------
DIPOLE MOMENT
-------------
                                X             Y             Z
Total Dipole Moment    :      2.28700      -0.93100       0.26600
                        -----------------------------------------
Magnitude (a.u.)       :      2.48352
Magnitude (Debye)      :      6.31261

                                *** OPTIMIZATION RUN DONE ***


--------------------------------
SUGGESTED CITATIONS FOR THIS RUN
--------------------------------

Below you find a list of papers that are relevant to this ORCA run
We neither can nor want to force you to cite these papers, but we appreciate if you do
You receive ORCA, which is the product of decades of hard work by many enthusiastic individuals, for free
The only thing we kindly ask in return is that you cite our papers,
We deeply appreciate it, if you show your appreciation for ORCA by not just citing the generic ORCA reference.

Please note that relegating all ORCA citations to the supporting information does *not* help us.
SI sections are not indexed - citations you put there will not count into any citation statistics
But we need these citations in order to attract the funding resources that allow us to do what we are doing

Therefore, if you are a happy ORCA user, please consider citing a few of the papers listed below in the main body of your paper

In addition to the list printed below, the program has created the file /home/esp/scriptDevelopment/drFrankenstein/11_PCY_CHARMM/04_torsion_scanning/torsion_NH1-CT1-CG321-CG2R61/scans_PCY_conformer_46/PCY_conformer_46_opt/orca_opt.bibtex that contains the list in bibtex format
You can import this file easily into all common literature databanks and citation aid programs


List of essential papers. We consider these as the minimum necessary citations

  1. Bannwarth, C.; Ehlert, S.; Grimme, S.
     GFN2-xTB—An Accurate and Broadly Parametrized Self-Consistent Tight-Binding Quantum Chemical Method with Multipole Electrostatics and Density-Dependent Dispersion Contributions
     J. Chem. Theory Comput. 2019 15(3), 1652-1671
     doi.org/10.1021/acs.jctc.8b01176
  2. Neese, F.
     Software update: the ORCA program system, version 6.0
     WIRES Comput. Molec. Sci. 2025 15(1), e70019
     doi.org/10.1002/wcms.7019

List of papers to cite with high priority. The work reported in these papers was absolutely
necessary for this run to complete.
Our perspective: the developers of density functionals and basis sets usually get cited in chemistry papers
Good! But without the algorithms to do something with them, the functionals or basis sets would not do anything.
Hence, in our opinion, the algorithm design and method developments papers are equally worthy of getting cited

  1. Bannwarth, C.; Caldeweyher, E.; Ehlert, S.; Hansen, A.; Pracht, P.; Seibert, J.; Spicher, S.; Grimme, S.
     Extended tight-binding quantum chemistry methods
     WIRES Comput. Molec. Sci. 2020 11(2), e1493
     doi.org/10.1002/wcms.1493

List of suggested additional citations. These are papers that are important in the 'surrounding' of 
of this run, or papers that preceded the highly important papers. If you like your results we are grateful for a citation.

  1. Neese, F.
     The ORCA program system
     WIRES Comput. Molec. Sci. 2012 2(1), 73-78
     doi.org/10.1002/wcms.81
  2. Neese, F.
     Software update: the ORCA program system, version 4.0
     WIRES Comput. Molec. Sci. 2018 8(1), 1-6
     doi.org/10.1002/wcms.1327
  3. Neese, F.; Wennmohs, F.; Becker, U.; Riplinger, C.
     The ORCA quantum chemistry program package
     J. Chem. Phys. 2020 152(22), 224108
     doi.org/10.1063/5.0004608
  4. Neese, F.
     Software update: The ORCA program system—Version 5.0
     WIRES Comput. Molec. Sci. 2022 12(1), e1606
     doi.org/10.1002/wcms.1606

List of optional additional citations

  1. Neese, F.
     Approximate second-order SCF convergence for spin unrestricted wavefunctions
     Chem. Phys. Lett. 2000 325(1-3), 93-98
     doi.org/10.1016/s0009-2614(00)00662-x

Timings for individual modules:

Sum of individual times          ...        2.119 sec (=   0.035 min)
Geometry relaxation              ...        0.242 sec (=   0.004 min)  11.4 %
XTB module                       ...        1.877 sec (=   0.031 min)  88.6 %
                             ****ORCA TERMINATED NORMALLY****
TOTAL RUN TIME: 0 days 0 hours 0 minutes 2 seconds 240 msec
