47
Coordinates from ORCA-job /home/esp/scriptDevelopment/drFrankenstein/11_PCY_CHARMM/04_torsion_scanning/torsion_NH1-CT1-CG321-CG2R61/scans_PCY_conformer_26/PCY_conformer_26_forwards/orca_scan Relaxed Surface Scan Step 1 E -79.899489615630
  H      -1.679096     -0.927991      4.434863
  H      -0.941161     -3.036322      3.795228
  H      -1.154439      2.537239      2.908812
  H       1.045719      3.959196     -1.230952
  H      -2.352110      0.254604      3.277684
  H      -0.757833      3.783963      0.833005
  H       1.183730     -0.703674      1.421922
  H       1.273904      2.386913     -2.025684
  H      -1.201650     -4.429927     -0.233865
  H       1.579210      0.539789     -0.674062
  H      -1.974816     -2.186453     -0.932082
  H      -2.252102      2.205328     -2.930722
  H      -0.714588     -4.854168      2.159919
  N      -1.274712      2.011990     -2.688859
  C      -0.732053      3.055866     -2.021985
  C      -1.661057      4.177509     -1.917161
  C       0.611684      2.972940     -1.388778
  O      -2.799903      4.077680     -2.414851
  C       0.444832      2.248639     -0.066102
  C      -0.316002      2.807617      0.955267
  C      -0.545089      2.112165      2.126034
  C      -0.016727      0.836676      2.285324
  C       0.770555      0.283812      1.283219
  C       0.998122      0.988785      0.115968
  O      -0.279653      0.100761      3.429955
  C      -1.579234     -0.502068      3.435937
  C      -1.628422     -1.593234      2.394407
  C      -1.188517     -2.859896      2.760224
  C      -1.048004     -3.881335      1.836436
  C      -1.320959     -3.646715      0.496499
  C      -1.750313     -2.398746      0.101330
  C      -1.919288     -1.373695      1.037071
  N      -2.413963     -0.144920      0.527464
  O      -2.236590      0.102454     -0.667961
  O      -3.030197      0.628973      1.263785
  C      -2.079010      6.461703     -1.134193
  N      -1.242341      5.298602     -1.298056
  H      -0.306354      5.348333     -0.928820
  H      -2.224372      6.677962     -0.075333
  H      -1.626080      7.325570     -1.620337
  H      -3.042186      6.249153     -1.594521
  C      -0.760160      0.791778     -3.054612
  O       0.397801      0.462138     -2.851002
  C      -1.769679     -0.065500     -3.757706
  H      -1.302942     -0.994410     -4.069740
  H      -2.581717     -0.275386     -3.064656
  H      -2.173225      0.454300     -4.622314
>
47
Coordinates from ORCA-job /home/esp/scriptDevelopment/drFrankenstein/11_PCY_CHARMM/04_torsion_scanning/torsion_NH1-CT1-CG321-CG2R61/scans_PCY_conformer_26/PCY_conformer_26_forwards/orca_scan Relaxed Surface Scan Step 2 E -79.899184402550
  H      -1.606477     -1.129242      4.461873
  H      -0.687365     -3.138719      3.656392
  H      -1.511609      2.291502      2.794245
  H       1.022571      3.929154     -1.122622
  H      -2.385594      0.064267      3.388113
  H      -1.127703      3.544618      0.720062
  H       1.410091     -0.579979      1.607068
  H       1.239380      2.377489     -1.951252
  H      -1.009279     -4.293133     -0.444000
  H       1.804073      0.679043     -0.480365
  H      -2.027743     -2.096396     -0.955708
  H      -2.306367      2.293551     -2.892797
  H      -0.373782     -4.820376      1.893070
  N      -1.367420      2.037157     -2.572089
  C      -0.742208      3.099315     -2.012302
  C      -1.568323      4.301618     -2.054451
  C       0.566045      2.960255     -1.319143
  O      -2.671291      4.266608     -2.636280
  C       0.370269      2.199578     -0.023482
  C      -0.556212      2.648761      0.911554
  C      -0.778514      1.947253      2.080223
  C      -0.076758      0.771646      2.321329
  C       0.868282      0.330529      1.403384
  C       1.091053      1.044275      0.241027
  O      -0.300269      0.021906      3.464765
  C      -1.564412     -0.650483      3.483104
  C      -1.579047     -1.686734      2.385878
  C      -1.002828     -2.923876      2.647488
  C      -0.812707     -3.865929      1.650941
  C      -1.169374     -3.574001      0.342304
  C      -1.735110     -2.352025      0.050357
  C      -1.957541     -1.413414      1.061368
  N      -2.595869     -0.209773      0.665246
  O      -2.464034      0.161827     -0.502607
  O      -3.287446      0.415622      1.471996
  C      -1.838394      6.660373     -1.447466
  N      -1.100010      5.421875     -1.469675
  H      -0.220151      5.402371     -0.979871
  H      -2.075579      6.944174     -0.421622
  H      -1.256579      7.453719     -1.916250
  H      -2.762330      6.509769     -2.002977
  C      -0.938388      0.754420     -2.812288
  O       0.173987      0.353111     -2.510310
  C      -1.973410     -0.072233     -3.517061
  H      -1.563378     -1.052128     -3.740803
  H      -2.837293     -0.174320     -2.863739
  H      -2.285949      0.414975     -4.436626
>
47
Coordinates from ORCA-job /home/esp/scriptDevelopment/drFrankenstein/11_PCY_CHARMM/04_torsion_scanning/torsion_NH1-CT1-CG321-CG2R61/scans_PCY_conformer_26/PCY_conformer_26_forwards/orca_scan Relaxed Surface Scan Step 3 E -79.898175266660
  H      -1.473030     -1.393161      4.470469
  H      -0.269452     -3.177788      3.409018
  H      -1.888599      1.862191      2.618872
  H       0.965824      3.959492     -0.939514
  H      -2.376756     -0.187863      3.522623
  H      -1.522214      3.173233      0.587135
  H       1.715090     -0.301473      1.880360
  H       1.227695      2.450411     -1.822857
  H      -0.958727     -4.154390     -0.693132
  H       2.090935      1.025826     -0.167015
  H      -2.341949     -2.113834     -0.918988
  H      -2.331622      2.412350     -2.841084
  H       0.051728     -4.697079      1.503110
  N      -1.443601      2.108654     -2.428643
  C      -0.747277      3.172459     -1.954662
  C      -1.453567      4.426417     -2.186495
  C       0.518783      2.999719     -1.195700
  O      -2.531803      4.412138     -2.816638
  C       0.307505      2.186097      0.062507
  C      -0.802313      2.416616      0.865010
  C      -1.014777      1.675159      2.011679
  C      -0.113018      0.678539      2.366004
  C       1.017634      0.466214      1.585160
  C       1.224817      1.217583      0.445724
  O      -0.286199     -0.113328      3.485930
  C      -1.509981     -0.852341      3.524005
  C      -1.521730     -1.816715      2.362604
  C      -0.742205     -2.962985      2.463505
  C      -0.549344     -3.809811      1.385914
  C      -1.114958     -3.508810      0.155240
  C      -1.883381     -2.373079      0.021808
  C      -2.102014     -1.534297      1.116986
  N      -2.940062     -0.412157      0.889814
  O      -2.967540      0.071473     -0.241428
  O      -3.631503      0.030566      1.808022
  C      -1.531217      6.858931     -1.905543
  N      -0.910198      5.570004     -1.724643
  H      -0.062725      5.541781     -1.181671
  H      -1.804436      7.290542     -0.942114
  H      -0.850306      7.534097     -2.423265
  H      -2.429135      6.717386     -2.504437
  C      -1.109973      0.780455     -2.522863
  O      -0.063752      0.322357     -2.091321
  C      -2.158407     -0.025095     -3.233545
  H      -1.786358     -1.030446     -3.404802
  H      -3.045862     -0.066361     -2.604967
  H      -2.421009      0.438321     -4.180171
>
47
Coordinates from ORCA-job /home/esp/scriptDevelopment/drFrankenstein/11_PCY_CHARMM/04_torsion_scanning/torsion_NH1-CT1-CG321-CG2R61/scans_PCY_conformer_26/PCY_conformer_26_forwards/orca_scan Relaxed Surface Scan Step 4 E -79.897671385100
  H      -1.315368     -1.606892      4.378414
  H       0.136778     -3.054465      2.976621
  H      -2.081028      1.396584      2.341817
  H       0.881217      4.168814     -0.711343
  H      -2.286539     -0.361417      3.572833
  H      -1.717420      2.862942      0.441288
  H       1.972588      0.072587      2.111839
  H       1.351798      2.741595     -1.644302
  H      -1.287063     -4.191856     -0.888628
  H       2.339288      1.555600      0.175666
  H      -2.999675     -2.410434     -0.750280
  H      -2.227792      2.475520     -2.774538
  H       0.277636     -4.518522      1.005131
  N      -1.352789      2.202560     -2.314525
  C      -0.668059      3.300510     -1.899412
  C      -1.341359      4.532310     -2.291548
  C       0.546662      3.188876     -1.051502
  O      -2.416262      4.463503     -2.924458
  C       0.331165      2.297484      0.152279
  C      -0.899043      2.249529      0.791440
  C      -1.110236      1.409466      1.869123
  C      -0.078300      0.602084      2.331662
  C       1.173820      0.687119      1.729037
  C       1.372038      1.524786      0.651691
  O      -0.203830     -0.276127      3.383540
  C      -1.419864     -1.016068      3.465996
  C      -1.520513     -1.931681      2.268534
  C      -0.560337     -2.932494      2.162324
  C      -0.473267     -3.746227      1.047547
  C      -1.347766     -3.564285     -0.014853
  C      -2.299434     -2.571729      0.054312
  C      -2.396417     -1.758082      1.187456
  N      -3.410120     -0.768553      1.161117
  O      -3.768133     -0.337836      0.064404
  O      -3.907281     -0.367835      2.214259
  C      -1.361565      6.981487     -2.321589
  N      -0.775292      5.711748     -1.969614
  H       0.098016      5.733549     -1.468934
  H      -1.593876      7.554321     -1.423479
  H      -0.676792      7.553481     -2.947521
  H      -2.279701      6.785988     -2.872725
  C      -1.024268      0.870313     -2.277872
  O       0.049181      0.461426     -1.862364
  C      -2.120836     -0.012815     -2.794502
  H      -1.735993     -1.018059     -2.935481
  H      -2.921336     -0.038363     -2.054681
  H      -2.523627      0.367561     -3.728181
>
47
Coordinates from ORCA-job /home/esp/scriptDevelopment/drFrankenstein/11_PCY_CHARMM/04_torsion_scanning/torsion_NH1-CT1-CG321-CG2R61/scans_PCY_conformer_26/PCY_conformer_26_forwards/orca_scan Relaxed Surface Scan Step 5 E -79.896938841200
  H      -1.247414     -1.745995      4.328612
  H       0.221286     -3.087206      2.807435
  H      -2.110795      1.256065      2.347270
  H       0.669971      4.316250     -0.492753
  H      -2.244964     -0.480762      3.591543
  H      -1.781860      2.819820      0.522773
  H       2.002898      0.126969      2.137228
  H       1.379754      3.009055     -1.451604
  H      -1.373478     -4.182851     -1.002945
  H       2.334189      1.709119      0.275839
  H      -3.131918     -2.462295     -0.729298
  H      -2.215231      2.497105     -2.702380
  H       0.304393     -4.497361      0.793563
  N      -1.354655      2.242889     -2.205180
  C      -0.674300      3.359372     -1.834574
  C      -1.308478      4.566948     -2.350919
  C       0.484346      3.322755     -0.903550
  O      -2.370087      4.468076     -3.001352
  C       0.294138      2.359148      0.244745
  C      -0.942706      2.227353      0.859366
  C      -1.133736      1.330390      1.894014
  C      -0.073666      0.551083      2.340869
  C       1.183074      0.720348      1.765808
  C       1.360826      1.613411      0.730468
  O      -0.169407     -0.376182      3.351647
  C      -1.377902     -1.125814      3.438990
  C      -1.507358     -2.004928      2.217184
  C      -0.521917     -2.969689      2.034268
  C      -0.468455     -3.752868      0.895932
  C      -1.406029     -3.577006     -0.112434
  C      -2.383773     -2.618566      0.032166
  C      -2.444354     -1.834404      1.188500
  N      -3.483105     -0.872415      1.237325
  O      -3.903578     -0.423507      0.170118
  O      -3.936657     -0.508589      2.323352
  C      -1.257332      7.002400     -2.605926
  N      -0.716236      5.755569     -2.123035
  H       0.164170      5.796078     -1.636020
  H      -1.468075      7.671437     -1.771456
  H      -0.554270      7.483665     -3.285739
  H      -2.182118      6.783777     -3.136842
  C      -1.015645      0.913998     -2.133316
  O       0.070044      0.527022     -1.730034
  C      -2.114886      0.007021     -2.600622
  H      -1.723377     -0.998593     -2.719100
  H      -2.902844     -0.005218     -1.846696
  H      -2.539475      0.355123     -3.537242
>
47
Coordinates from ORCA-job /home/esp/scriptDevelopment/drFrankenstein/11_PCY_CHARMM/04_torsion_scanning/torsion_NH1-CT1-CG321-CG2R61/scans_PCY_conformer_26/PCY_conformer_26_forwards/orca_scan Relaxed Surface Scan Step 6 E -79.896028973420
  H      -1.169319     -1.873204      4.284702
  H       0.316731     -3.094051      2.654603
  H      -2.138718      1.132483      2.370743
  H       0.426956      4.423141     -0.311835
  H      -2.202296     -0.598489      3.617980
  H      -1.860562      2.774240      0.608798
  H       2.022244      0.191526      2.167656
  H       1.352917      3.249170     -1.258996
  H      -1.401315     -4.135189     -1.117424
  H       2.302911      1.854346      0.370495
  H      -3.208231     -2.490958     -0.715010
  H      -2.225642      2.523857     -2.657542
  H       0.365188     -4.437135      0.594096
  N      -1.391700      2.275077     -2.113499
  C      -0.700356      3.396478     -1.779411
  C      -1.268158      4.581178     -2.414659
  C       0.390412      3.430676     -0.767270
  O      -2.301313      4.469696     -3.106812
  C       0.235624      2.413335      0.335808
  C      -0.999965      2.205921      0.932412
  C      -1.161832      1.263637      1.930690
  C      -0.073027      0.515302      2.361361
  C       1.180689      0.761111      1.807823
  C       1.329306      1.698844      0.808009
  O      -0.135132     -0.451880      3.335793
  C      -1.329135     -1.223295      3.421221
  C      -1.474735     -2.061626      2.172869
  C      -0.462889     -2.981562      1.917355
  C      -0.429786     -3.726675      0.753127
  C      -1.417017     -3.557495     -0.207891
  C      -2.422053     -2.641745      0.008343
  C      -2.460189     -1.895044      1.190114
  N      -3.526214     -0.970136      1.310599
  O      -4.001975     -0.501416      0.275593
  O      -3.946257     -0.654336      2.424949
  C      -1.103760      6.986225     -2.850111
  N      -0.640531      5.761443     -2.244855
  H       0.228429      5.800539     -1.737557
  H      -1.301612      7.734208     -2.082376
  H      -0.359842      7.372224     -3.547213
  H      -2.024053      6.767494     -3.388691
  C      -1.068326      0.943706     -2.008383
  O       0.010723      0.553109     -1.591934
  C      -2.175224      0.038631     -2.461578
  H      -1.788786     -0.969893     -2.572077
  H      -2.960457      0.034927     -1.704523
  H      -2.602712      0.379607     -3.399491
>
47
Coordinates from ORCA-job /home/esp/scriptDevelopment/drFrankenstein/11_PCY_CHARMM/04_torsion_scanning/torsion_NH1-CT1-CG321-CG2R61/scans_PCY_conformer_26/PCY_conformer_26_forwards/orca_scan Relaxed Surface Scan Step 7 E -79.895008436130
  H      -1.088856     -1.977332      4.246525
  H       0.413868     -3.075283      2.521666
  H      -2.159708      1.032155      2.402323
  H       0.178778      4.493870     -0.170928
  H      -2.157817     -0.701161      3.644034
  H      -1.937361      2.734525      0.690715
  H       2.033428      0.251001      2.186782
  H       1.293672      3.463166     -1.078683
  H      -1.401815     -4.074499     -1.215842
  H       2.257942      1.976485      0.441798
  H      -3.254568     -2.514632     -0.698837
  H      -2.229792      2.553676     -2.652092
  H       0.438642     -4.353553      0.419731
  N      -1.437269      2.301821     -2.049195
  C      -0.725472      3.418050     -1.740799
  C      -1.209360      4.577280     -2.484788
  C       0.285833      3.516607     -0.651150
  O      -2.190851      4.452418     -3.246312
  C       0.171139      2.458999      0.415005
  C      -1.057598      2.188895      1.001337
  C      -1.187370      1.211786      1.969757
  C      -0.072525      0.491884      2.382266
  C       1.172459      0.799803      1.840818
  C       1.289092      1.772091      0.870022
  O      -0.100461     -0.505053      3.327462
  C      -1.277223     -1.301986      3.408490
  C      -1.433193     -2.102165      2.136666
  C      -0.396217     -2.972589      1.816491
  C      -0.377225     -3.680901      0.629336
  C      -1.405868     -3.524038     -0.289413
  C      -2.436675     -2.655527     -0.009389
  C      -2.459336     -1.945460      1.195058
  N      -3.552338     -1.063845      1.380305
  O      -4.079167     -0.580929      0.377201
  O      -3.943266     -0.796052      2.517620
  C      -0.936032      6.947474     -3.040983
  N      -0.561004      5.748566     -2.331421
  H       0.269626      5.791517     -1.763957
  H      -1.155223      7.748611     -2.335378
  H      -0.134090      7.263833     -3.708290
  H      -1.826352      6.726328     -3.626839
  C      -1.153923      0.964026     -1.906099
  O      -0.096204      0.550880     -1.458612
  C      -2.276010      0.079617     -2.363887
  H      -1.902289     -0.931656     -2.491919
  H      -3.053371      0.070701     -1.598621
  H      -2.709639      0.438599     -3.291974
>
47
Coordinates from ORCA-job /home/esp/scriptDevelopment/drFrankenstein/11_PCY_CHARMM/04_torsion_scanning/torsion_NH1-CT1-CG321-CG2R61/scans_PCY_conformer_26/PCY_conformer_26_forwards/orca_scan Relaxed Surface Scan Step 8 E -79.893959724760
  H      -1.004113     -2.077244      4.209151
  H       0.528281     -3.015252      2.390532
  H      -2.181621      0.947167      2.456697
  H      -0.070441      4.530296     -0.063052
  H      -2.115947     -0.807492      3.675056
  H      -2.022074      2.695722      0.782701
  H       2.033737      0.310667      2.210228
  H       1.200000      3.636793     -0.908820
  H      -1.353451     -3.961563     -1.327950
  H       2.194838      2.081492      0.503686
  H      -3.265634     -2.521451     -0.692145
  H      -2.231996      2.581861     -2.674430
  H       0.551636     -4.205572      0.237529
  N      -1.498405      2.319634     -2.003234
  C      -0.755072      3.419333     -1.709011
  C      -1.136020      4.550339     -2.551904
  C       0.166913      3.576958     -0.547696
  O      -2.054265      4.412645     -3.386764
  C       0.092830      2.494522      0.494181
  C      -1.124031      2.172763      1.079703
  C      -1.217761      1.170331      2.025438
  C      -0.077860      0.478554      2.417420
  C       1.154055      0.838844      1.879505
  C       1.234623      1.835641      0.929955
  O      -0.070478     -0.541308      3.338389
  C      -1.222997     -1.373659      3.402169
  C      -1.377242     -2.125839      2.101253
  C      -0.308113     -2.927563      1.714585
  C      -0.290794     -3.586012      0.499222
  C      -1.355648     -3.448203     -0.380422
  C      -2.419562     -2.646231     -0.034365
  C      -2.439054     -1.984994      1.197590
  N      -3.565744     -1.164757      1.449225
  O      -4.147449     -0.672311      0.481692
  O      -3.930675     -0.955353      2.607263
  C      -0.732916      6.875942     -3.207768
  N      -0.464711      5.708763     -2.403111
  H       0.309961      5.760828     -1.762202
  H      -0.979771      7.723793     -2.569223
  H       0.133837      7.125720     -3.820152
  H      -1.578393      6.650653     -3.855199
  C      -1.291763      0.973674     -1.808724
  O      -0.280321      0.516714     -1.300855
  C      -2.437981      0.133271     -2.290631
  H      -2.083229     -0.875013     -2.481669
  H      -3.192638      0.087717     -1.503733
  H      -2.893527      0.547182     -3.184108
>
47
Coordinates from ORCA-job /home/esp/scriptDevelopment/drFrankenstein/11_PCY_CHARMM/04_torsion_scanning/torsion_NH1-CT1-CG321-CG2R61/scans_PCY_conformer_26/PCY_conformer_26_forwards/orca_scan Relaxed Surface Scan Step 9 E -79.892828054590
  H      -0.917601     -2.149868      4.177958
  H       0.608634     -2.989215      2.301617
  H      -2.189645      0.893402      2.527647
  H      -0.321080      4.550106      0.015067
  H      -2.065799     -0.890317      3.699577
  H      -2.097033      2.680564      0.888003
  H       2.032613      0.351619      2.191339
  H       1.087546      3.805054     -0.753220
  H      -1.322280     -3.883404     -1.404382
  H       2.126377      2.163707      0.522911
  H      -3.260863     -2.517936     -0.688715
  H      -2.210648      2.596637     -2.719223
  H       0.620983     -4.116718      0.115099
  N      -1.544133      2.333007     -1.980264
  C      -0.775515      3.416733     -1.689127
  C      -1.058496      4.515323     -2.611467
  C       0.045459      3.633272     -0.461613
  O      -1.904270      4.354342     -3.516187
  C       0.016121      2.531413      0.560201
  C      -1.183048      2.171767      1.160127
  C      -1.238744      1.147648      2.084868
  C      -0.077556      0.471432      2.439887
  C       1.136544      0.868963      1.888572
  C       1.179216      1.888166      0.960398
  O      -0.033088     -0.569061      3.336639
  C      -1.165714     -1.428554      3.395385
  C      -1.326364     -2.146568      2.076050
  C      -0.243756     -2.906525      1.645286
  C      -0.233065     -3.529422      0.411344
  C      -1.319384     -3.397502     -0.442474
  C      -2.397865     -2.636581     -0.052167
  C      -2.410193     -2.010554      1.198114
  N      -3.553014     -1.228822      1.494602
  O      -4.171202     -0.730961      0.553093
  O      -3.896361     -1.056416      2.665169
  C      -0.566004      6.806674     -3.323233
  N      -0.382076      5.669200     -2.454801
  H       0.322533      5.745841     -1.739916
  H      -0.872484      7.677167     -2.743531
  H       0.357998      7.034480     -3.854959
  H      -1.343959      6.557827     -4.042669
  C      -1.412738      0.985199     -1.735549
  O      -0.453999      0.493490     -1.162190
  C      -2.572966      0.183764     -2.250780
  H      -2.231137     -0.817069     -2.497405
  H      -3.314815      0.100171     -1.454737
  H      -3.038124      0.646529     -3.114342
>
47
Coordinates from ORCA-job /home/esp/scriptDevelopment/drFrankenstein/11_PCY_CHARMM/04_torsion_scanning/torsion_NH1-CT1-CG321-CG2R61/scans_PCY_conformer_26/PCY_conformer_26_forwards/orca_scan Relaxed Surface Scan Step 10 E -79.891685016570
  H      -0.819432     -2.223239      4.142420
  H       0.693024     -2.959861      2.216652
  H      -2.190505      0.863684      2.652653
  H      -0.599279      4.549490      0.083720
  H      -2.008502     -0.978881      3.727175
  H      -2.183011      2.684577      1.045355
  H       2.020609      0.378621      2.138417
  H       0.929083      3.965951     -0.592363
  H      -1.275507     -3.779380     -1.486664
  H       2.028794      2.227236      0.506683
  H      -3.234385     -2.486593     -0.695948
  H      -2.179704      2.593427     -2.773048
  H       0.698268     -4.012140     -0.007006
  N      -1.598065      2.337856     -1.961514
  C      -0.812006      3.407135     -1.659454
  C      -0.978507      4.462191     -2.658609
  C      -0.105480      3.682455     -0.372370
  O      -1.727064      4.263645     -3.639054
  C      -0.082176      2.568564      0.635710
  C      -1.252978      2.183540      1.274281
  C      -1.260698      1.140881      2.179473
  C      -0.079137      0.470419      2.472353
  C       1.108037      0.892813      1.883195
  C       1.103019      1.931784      0.976114
  O       0.008477     -0.590490      3.342878
  C      -1.099963     -1.481996      3.389997
  C      -1.264762     -2.157593      2.048889
  C      -0.171439     -2.876220      1.576375
  C      -0.165269     -3.457033      0.322138
  C      -1.268567     -3.325038     -0.509456
  C      -2.358314     -2.604077     -0.077406
  C      -2.364994     -2.018234      1.192128
  N      -3.519766     -1.271228      1.529080
  O      -4.167000     -0.765221      0.612537
  O      -3.845489     -1.136205      2.709116
  C      -0.380603      6.707763     -3.431755
  N      -0.307999      5.617524     -2.489379
  H       0.300607      5.735656     -1.696462
  H      -0.746611      7.608478     -2.939318
  H       0.601541      6.905401     -3.861578
  H      -1.070409      6.422126     -4.223750
  C      -1.556417      0.995549     -1.660419
  O      -0.675715      0.474303     -0.995172
  C      -2.713090      0.231567     -2.238921
  H      -2.370665     -0.753912     -2.541366
  H      -3.458305      0.098153     -1.453054
  H      -3.170637      0.744553     -3.077273
>
47
Coordinates from ORCA-job /home/esp/scriptDevelopment/drFrankenstein/11_PCY_CHARMM/04_torsion_scanning/torsion_NH1-CT1-CG321-CG2R61/scans_PCY_conformer_26/PCY_conformer_26_forwards/orca_scan Relaxed Surface Scan Step 11 E -79.890604014430
  H      -0.712110     -2.266227      4.124088
  H       0.753970     -2.997490      2.197752
  H      -2.168616      0.870785      2.822329
  H      -0.900638      4.526236      0.129551
  H      -1.938478     -1.043999      3.749020
  H      -2.263479      2.720467      1.248292
  H       1.994402      0.379127      2.008530
  H       0.729047      4.128471     -0.439963
  H      -1.214970     -3.746681     -1.519942
  H       1.899499      2.258765      0.414199
  H      -3.164635     -2.452654     -0.712610
  H      -2.109496      2.583277     -2.864030
  H       0.754470     -4.018074     -0.040302
  N      -1.640079      2.345552     -1.976174
  C      -0.851480      3.403229     -1.640050
  C      -0.891869      4.415182     -2.696487
  C      -0.279538      3.729053     -0.297868
  O      -1.530793      4.176736     -3.743997
  C      -0.195420      2.605564      0.696708
  C      -1.321499      2.214505      1.407121
  C      -1.271824      1.156742      2.293333
  C      -0.076692      0.475502      2.489663
  C       1.069418      0.902726      1.827760
  C       1.007447      1.958513      0.942469
  O       0.062028     -0.602371      3.333987
  C      -1.024993     -1.520636      3.389120
  C      -1.197583     -2.178240      2.039762
  C      -0.109205     -2.898104      1.557939
  C      -0.105383     -3.461083      0.295521
  C      -1.206134     -3.307883     -0.535682
  C      -2.291157     -2.585912     -0.093873
  C      -2.296637     -2.019114      1.184329
  N      -3.451060     -1.276153      1.531426
  O      -4.114450     -0.779680      0.622362
  O      -3.765328     -1.139400      2.713962
  C      -0.206120      6.626044     -3.495696
  N      -0.235464      5.575110     -2.507362
  H       0.266333      5.737943     -1.650303
  H      -0.627015      7.543224     -3.084136
  H       0.817317      6.813348     -3.821027
  H      -0.802337      6.303924     -4.347396
  C      -1.721970      1.022697     -1.606856
  O      -0.956127      0.479524     -0.826572
  C      -2.860171      0.299868     -2.271131
  H      -2.495000     -0.639623     -2.677579
  H      -3.596988      0.061624     -1.503127
  H      -3.330182      0.887591     -3.051060
>
47
Coordinates from ORCA-job /home/esp/scriptDevelopment/drFrankenstein/11_PCY_CHARMM/04_torsion_scanning/torsion_NH1-CT1-CG321-CG2R61/scans_PCY_conformer_26/PCY_conformer_26_forwards/orca_scan Relaxed Surface Scan Step 12 E -79.892673929520
  H      -0.747897     -2.188199      3.970130
  H       0.983098     -2.688816      1.954519
  H      -1.445714      1.432953      3.759702
  H      -1.657626      4.501940      0.305239
  H      -1.871960     -0.922815      3.433369
  H      -1.857918      3.399655      2.348355
  H       1.320995     -0.066626      0.881184
  H       0.066054      4.620396     -0.085154
  H      -0.999383     -3.882785     -1.642656
  H       0.911424      1.909128     -0.538921
  H      -3.091454     -2.878288     -0.784287
  H      -1.565531      2.229710     -2.875418
  H       1.048089     -3.798699     -0.246015
  N      -1.662608      2.376645     -1.863862
  C      -1.084968      3.560179     -1.513485
  C      -0.637924      4.300781     -2.684261
  C      -0.800584      3.956204     -0.105151
  O      -0.771794      3.794846     -3.818821
  C      -0.519762      2.779047      0.794886
  C      -1.154609      2.649010      2.022516
  C      -0.930197      1.542435      2.817145
  C      -0.052142      0.552620      2.394206
  C       0.626355      0.697629      1.192155
  C       0.393431      1.808084      0.403467
  O       0.160729     -0.582740      3.165047
  C      -0.957137     -1.464121      3.178309
  C      -1.072444     -2.178006      1.852851
  C       0.093000     -2.747219      1.346884
  C       0.129609     -3.358798      0.108047
  C      -1.015687     -3.407052     -0.675933
  C      -2.181666     -2.845958     -0.205257
  C      -2.221538     -2.234547      1.052560
  N      -3.473446     -1.693833      1.447816
  O      -4.283578     -1.417685      0.568808
  O      -3.716917     -1.531163      2.640423
  C       0.343996      6.349984     -3.599663
  N      -0.095073      5.522342     -2.502675
  H      -0.088733      5.936396     -1.584995
  H      -0.273873      7.245213     -3.678351
  H       1.384017      6.641278     -3.455401
  H       0.251624      5.768908     -4.515459
  C      -2.484651      1.523015     -1.172693
  O      -2.872372      1.742583     -0.034666
  C      -2.856374      0.303104     -1.966796
  H      -1.966593     -0.290511     -2.163715
  H      -3.567120     -0.286564     -1.393292
  H      -3.304136      0.588340     -2.914691
>
47
Coordinates from ORCA-job /home/esp/scriptDevelopment/drFrankenstein/11_PCY_CHARMM/04_torsion_scanning/torsion_NH1-CT1-CG321-CG2R61/scans_PCY_conformer_26/PCY_conformer_26_forwards/orca_scan Relaxed Surface Scan Step 13 E -79.893483036150
  H      -0.565575     -2.208289      3.941690
  H       1.074117     -2.657912      1.881084
  H      -1.497688      1.360626      3.739530
  H      -1.923698      4.390641      0.274758
  H      -1.767309     -0.982610      3.486597
  H      -2.018412      3.311564      2.346042
  H       1.375862      0.062310      0.866934