47
Coordinates from ORCA-job /home/esp/scriptDevelopment/drFrankenstein/11_PCY_CHARMM/04_torsion_scanning/torsion_NH1-CT1-CG321-CG2R61/scans_PCY_conformer_34/PCY_conformer_34_backwards/orca_scan Relaxed Surface Scan Step 1 E -79.895718658930
  H      -1.796772     -3.689954      1.306846
  H       1.179536     -2.863871      0.070805
  H      -4.146427     -0.049603      1.653403
  H      -3.168743      4.021024     -0.363225
  H      -1.171750     -2.806743     -0.111084
  H      -4.113654      2.313178      0.939719
  H      -0.346593     -0.654051     -0.200528
  H      -1.504601      4.173522      0.215134
  H       3.136488     -1.340024      3.549256
  H      -0.316377      1.672919     -0.897570
  H       0.941696     -1.197887      4.700488
  H      -1.921891      3.226194     -3.764151
  H       3.241473     -2.225242      1.241580
  N      -2.431531      3.155927     -2.877373
  C      -1.718540      3.737913     -1.871015
  C      -0.471874      4.304615     -2.352331
  C      -2.157001      3.615946     -0.456020
  O      -0.209698      4.259645     -3.574819
  C      -2.206618      2.164162     -0.025753
  C      -3.284716      1.667641      0.696354
  C      -3.314808      0.348009      1.092792
  C      -2.263863     -0.511546      0.773697
  C      -1.180237     -0.022213      0.056298
  C      -1.162919      1.305577     -0.336027
  O      -2.407861     -1.799808      1.214405
  C      -1.375593     -2.740026      0.963326
  C      -0.105278     -2.433837      1.717145
  C       1.131668     -2.513337      1.090355
  C       2.293277     -2.145155      1.748252
  C       2.237693     -1.651134      3.043027
  C       1.020259     -1.564172      3.688624
  C      -0.138043     -1.982061      3.038853
  N      -1.351701     -1.954638      3.792339
  O      -2.116845     -2.902214      3.707994
  O      -1.537903     -0.999204      4.534167
  C       1.624802      5.469812     -1.845653
  N       0.372366      4.867070     -1.462281
  H       0.132409      4.884974     -0.484823
  H       1.741789      5.342276     -2.920466
  H       1.625266      6.533772     -1.606483
  H       2.452135      4.983754     -1.328590
  C      -3.701662      2.646865     -2.893087
  O      -4.438659      2.648001     -1.916677
  C      -4.089507      2.094256     -4.236610
  H      -3.400014      1.305079     -4.525028
  H      -5.097005      1.693481     -4.181238
  H      -4.053175      2.879108     -4.987999
>
47
Coordinates from ORCA-job /home/esp/scriptDevelopment/drFrankenstein/11_PCY_CHARMM/04_torsion_scanning/torsion_NH1-CT1-CG321-CG2R61/scans_PCY_conformer_34/PCY_conformer_34_backwards/orca_scan Relaxed Surface Scan Step 2 E -79.894928131770
  H      -2.051888     -3.652365      1.404336
  H       0.890904     -3.035660     -0.023671
  H      -4.122857      0.143910      1.856410
  H      -3.039709      4.096619     -0.337216
  H      -1.461269     -2.826675     -0.062116
  H      -3.983081      2.488755      1.102736
  H      -0.507783     -0.736397     -0.240232
  H      -1.363475      4.166156      0.225415
  H       3.151319     -1.601862      3.305994
  H      -0.367875      1.575658     -0.971182
  H       1.045079     -1.307100      4.586679
  H      -1.700777      3.105050     -3.718874
  H       3.057605     -2.517658      1.009929
  N      -2.225988      3.034955     -2.841436
  C      -1.608570      3.749184     -1.856480
  C      -0.443637      4.457495     -2.354226
  C      -2.048989      3.642086     -0.440498
  O      -0.134078      4.355524     -3.562124
  C      -2.162933      2.201153      0.008725
  C      -3.217512      1.786333      0.813182
  C      -3.307598      0.477462      1.233536
  C      -2.341597     -0.455043      0.856152
  C      -1.279062     -0.047483      0.061096
  C      -1.199963      1.271867     -0.352661
  O      -2.541888     -1.726654      1.324202
  C      -1.591973     -2.735887      1.021851
  C      -0.259788     -2.505994      1.691217
  C       0.928473     -2.671588      0.991533
  C       2.149402     -2.371427      1.572068
  C       2.205091     -1.860563      2.860274
  C       1.037736     -1.688813      3.577514
  C      -0.182372     -2.039028      3.005709
  N      -1.343534     -1.926931      3.830781
  O      -2.166865     -2.828177      3.810567
  O      -1.425577     -0.952396      4.566422
  C       1.426373      5.977479     -1.904445
  N       0.270498      5.217546     -1.497454
  H      -0.019840      5.300666     -0.537273
  H       1.597703      5.784098     -2.961987
  H       1.253807      7.043830     -1.755582
  H       2.301720      5.670556     -1.331858
  C      -3.448140      2.418176     -2.857632
  O      -4.226413      2.448977     -1.915024
  C      -3.727274      1.714396     -4.156634
  H      -2.958613      0.969912     -4.346701
  H      -4.696627      1.228966     -4.098990
  H      -3.729165      2.428891     -4.976003
>
47
Coordinates from ORCA-job /home/esp/scriptDevelopment/drFrankenstein/11_PCY_CHARMM/04_torsion_scanning/torsion_NH1-CT1-CG321-CG2R61/scans_PCY_conformer_34/PCY_conformer_34_backwards/orca_scan Relaxed Surface Scan Step 3 E -79.893991265860
  H      -2.206400     -3.630225      1.426925
  H       0.730559     -3.139436     -0.062623
  H      -4.094269      0.255219      1.928978
  H      -2.861553      4.177108     -0.237690
  H      -1.611565     -2.829242     -0.051471
  H      -3.865609      2.592257      1.175488
  H      -0.571350     -0.783889     -0.249857
  H      -1.152127      4.125822      0.219560
  H       3.119164     -1.803225      3.217682
  H      -0.341880      1.521172     -0.979120
  H       1.054764     -1.421017      4.542794
  H      -1.575922      3.051750     -3.680228
  H       2.938437     -2.713604      0.924843
  N      -2.093782      2.971796     -2.799103
  C      -1.536215      3.771547     -1.844475
  C      -0.455973      4.578501     -2.382795
  C      -1.911608      3.658753     -0.408889
  O      -0.137699      4.454956     -3.586132
  C      -2.087218      2.224945      0.036703
  C      -3.139481      1.856835      0.866533
  C      -3.279379      0.552645      1.287553
  C      -2.366262     -0.422161      0.886651
  C      -1.304199     -0.061557      0.068715
  C      -1.174541      1.253687     -0.344920
  O      -2.613344     -1.684677      1.357828
  C      -1.715188     -2.734145      1.035045
  C      -0.360356     -2.562684      1.676045
  C       0.804792     -2.777902      0.951465
  C       2.049257     -2.529587      1.505950
  C       2.153661     -2.021932      2.792381
  C       1.010038     -1.801718      3.534211
  C      -0.235451     -2.100358      2.988526
  N      -1.373162     -1.940952      3.838075
  O      -2.232837     -2.807853      3.835949
  O      -1.400028     -0.963895      4.574453
  C       1.234778      6.314456     -2.013264
  N       0.169430      5.451944     -1.565149
  H      -0.152349      5.571859     -0.618959
  H       1.441483      6.076078     -3.055156
  H       0.939417      7.361185     -1.934364
  H       2.131490      6.146842     -1.416616
  C      -3.283264      2.292549     -2.800828
  O      -4.083299      2.345759     -1.878261
  C      -3.494908      1.493663     -4.056587
  H      -2.684041      0.780901     -4.181649
  H      -4.439142      0.962429     -3.987690
  H      -3.513870      2.153404     -4.920498
>
47
Coordinates from ORCA-job /home/esp/scriptDevelopment/drFrankenstein/11_PCY_CHARMM/04_torsion_scanning/torsion_NH1-CT1-CG321-CG2R61/scans_PCY_conformer_34/PCY_conformer_34_backwards/orca_scan Relaxed Surface Scan Step 4 E -79.892911601130
  H      -2.356199     -3.595468      1.466145
  H       0.567098     -3.254180     -0.082072
  H      -4.058849      0.370507      1.989346
  H      -2.657954      4.249007     -0.144569
  H      -1.754021     -2.822605     -0.024302
  H      -3.740574      2.692676      1.224497
  H      -0.614439     -0.826524     -0.232989
  H      -0.927261      4.074436      0.183891
  H       3.088963     -2.035318      3.143732
  H      -0.294589      1.464390     -0.972333
  H       1.074935     -1.544337      4.509817
  H      -1.461895      3.029982     -3.664487
  H       2.814061     -2.940234      0.858119
  N      -1.964271      2.924613     -2.776925
  C      -1.468000      3.790038     -1.845777
  C      -0.490249      4.697375     -2.420306
  C      -1.762279      3.667232     -0.390498
  O      -0.180603      4.587153     -3.626832
  C      -1.996584      2.245904      0.060264
  C      -3.050909      1.926109      0.907351
  C      -3.241159      0.630586      1.335351
  C      -2.377067     -0.383854      0.925019
  C      -1.311215     -0.072028      0.092055
  C      -1.130489      1.234974     -0.327732
  O      -2.671841     -1.633084      1.404222
  C      -1.830910     -2.723500      1.064126
  C      -0.456379     -2.618618      1.676975
  C       0.680954     -2.894809      0.929109
  C       1.947780     -2.709459      1.456836
  C       2.104875     -2.204991      2.739182
  C       0.989757     -1.924594      3.503681
  C      -0.280589     -2.160318      2.985008
  N      -1.390284     -1.940897      3.857765
  O      -2.293630     -2.761987      3.876194
  O      -1.350789     -0.962695      4.592190
  C       0.999452      6.619096     -2.109618
  N       0.049314      5.647316     -1.626531
  H      -0.284278      5.759796     -0.683433
  H       1.222509      6.380437     -3.148051
  H       0.583124      7.625413     -2.052691
  H       1.915561      6.574366     -1.520780
  C      -3.117363      2.183313     -2.770639
  O      -3.936169      2.233019     -1.865074
  C      -3.263305      1.324168     -3.995382
  H      -2.407619      0.660261     -4.085130
  H      -4.173316      0.737829     -3.913937
  H      -3.314307      1.947504     -4.884758
>
47
Coordinates from ORCA-job /home/esp/scriptDevelopment/drFrankenstein/11_PCY_CHARMM/04_torsion_scanning/torsion_NH1-CT1-CG321-CG2R61/scans_PCY_conformer_34/PCY_conformer_34_backwards/orca_scan Relaxed Surface Scan Step 5 E -79.891782463850
  H      -2.491733     -3.551932      1.508714
  H       0.412842     -3.358661     -0.089795
  H      -4.011222      0.485104      2.044548
  H      -2.436196      4.311257     -0.054459
  H      -1.881467     -2.807197      0.007165
  H      -3.606133      2.788217      1.265290
  H      -0.645390     -0.863996     -0.210363
  H      -0.701035      4.014223      0.123715
  H       3.051368     -2.256397      3.084356
  H      -0.237903      1.408768     -0.962926
  H       1.089923     -1.658724      4.483820
  H      -1.381494      3.043582     -3.665767
  H       2.689715     -3.154920      0.808298
  N      -1.854673      2.897186     -2.767560
  C      -1.414404      3.808760     -1.852324
  C      -0.551887      4.807986     -2.459146
  C      -1.608929      3.670192     -0.380134
  O      -0.282512      4.735391     -3.677899
  C      -1.896456      2.264617      0.081658
  C      -2.952225      1.992664      0.943323
  C      -3.191127      0.708137      1.379945
  C      -2.375586     -0.343113      0.963771
  C      -1.306266     -0.079418      0.118563
  C      -1.075722      1.216995     -0.308674
  O      -2.717426     -1.577241      1.451070
  C      -1.933881     -2.705098      1.096819
  C      -0.544971     -2.665491      1.684353
  C       0.563248     -3.001631      0.917428
  C       1.847159     -2.878538      1.421395
  C       2.052802     -2.377694      2.698306
  C       0.967350     -2.038104      3.481233
  C      -0.322504     -2.211312      2.986612
  N      -1.403682     -1.932409      3.877962
  O      -2.345303     -2.708438      3.918980
  O      -1.302767     -0.952757      4.604598
  C       0.753632      6.864873     -2.185958
  N      -0.073274      5.798704     -1.675842
  H      -0.383304      5.873180     -0.721029
  H       0.966646      6.651072     -3.231869
  H       0.236794      7.822441     -2.112533
  H       1.687651      6.915599     -1.626654
  C      -2.959997      2.084508     -2.754911
  O      -3.789559      2.100600     -1.858570
  C      -3.038524      1.193872     -3.963275
  H      -2.135325      0.594534     -4.040438
  H      -3.902878      0.543474     -3.871683
  H      -3.134375      1.795135     -4.864082
>
47
Coordinates from ORCA-job /home/esp/scriptDevelopment/drFrankenstein/11_PCY_CHARMM/04_torsion_scanning/torsion_NH1-CT1-CG321-CG2R61/scans_PCY_conformer_34/PCY_conformer_34_backwards/orca_scan Relaxed Surface Scan Step 6 E -79.890586469500
  H      -2.601785     -3.504012      1.555979
  H       0.279695     -3.439629     -0.087066
  H      -3.969456      0.586671      2.081419
  H      -2.222234      4.357649      0.019848
  H      -1.985113     -2.784777      0.044524
  H      -3.490876      2.869033      1.282649
  H      -0.661460     -0.892662     -0.176895
  H      -0.501846      3.948339      0.044008
  H       3.015805     -2.448111      3.040763
  H      -0.180676      1.359816     -0.948727
  H       1.105833     -1.760039      4.469516
  H      -1.335100      3.078117     -3.679348
  H       2.577741     -3.335375      0.773683
  N      -1.770795      2.883739     -2.770675
  C      -1.384896      3.827341     -1.862784
  C      -0.632272      4.900173     -2.491269
  C      -1.471261      3.667225     -0.380834
  O      -0.419821      4.869444     -3.722994
  C      -1.805527      2.278746      0.095182
  C      -2.865387      2.049547      0.963805
  C      -3.145278      0.777162      1.411752
  C      -2.367444     -0.303846      1.000413
  C      -1.293486     -0.083263      0.148641
  C      -1.021157      1.201089     -0.289093
  O      -2.747179     -1.521858      1.500135
  C      -2.016006     -2.680846      1.134874
  C      -0.617391     -2.700020      1.700012
  C       0.462270     -3.087192      0.916458
  C       1.758354     -3.020152      1.399324
  C       2.006716     -2.525737      2.671156
  C       0.950272     -2.136112      3.470281
  C      -0.353845     -2.252871      2.996955
  N      -1.407102     -1.924227      3.904714
  O      -2.380507     -2.658620      3.964105
  O      -1.251812     -0.947596      4.625722
  C       0.534338      7.041129     -2.235449
  N      -0.187739      5.908207     -1.710141
  H      -0.448706      5.937687     -0.738437
  H       0.711504      6.862110     -3.294480
  H      -0.045607      7.957282     -2.117787
  H       1.488117      7.149660     -1.719480
  C      -2.825009      2.004028     -2.757670
  O      -3.655871      1.968136     -1.863703
  C      -2.845771      1.110479     -3.966432
  H      -1.904196      0.574138     -4.047025
  H      -3.664069      0.403241     -3.873345
  H      -2.984968      1.704757     -4.866252
>
47
Coordinates from ORCA-job /home/esp/scriptDevelopment/drFrankenstein/11_PCY_CHARMM/04_torsion_scanning/torsion_NH1-CT1-CG321-CG2R61/scans_PCY_conformer_34/PCY_conformer_34_backwards/orca_scan Relaxed Surface Scan Step 7 E -79.889358563820
  H      -2.696978     -3.463403      1.606086
  H       0.178558     -3.526982     -0.050099
  H      -3.895090      0.682741      2.106275
  H      -1.945046      4.372901      0.087683
  H      -2.060016     -2.780299      0.086319
  H      -3.329647      2.937675      1.286005
  H      -0.665476     -0.947550     -0.161267
  H      -0.266679      3.840959     -0.079148
  H       2.964950     -2.616603      3.058137
  H      -0.101006      1.277424     -0.957778
  H       1.089484     -1.843230      4.488977
  H      -1.337372      3.147292     -3.716955
  H       2.482832     -3.505314      0.800584
  N      -1.707738      2.890181     -2.794316
  C      -1.346400      3.838636     -1.880299
  C      -0.724572      4.986557     -2.520096
  C      -1.295134      3.638300     -0.400311
  O      -0.613784      5.017618     -3.765260
  C      -1.678515      2.269492      0.091478
  C      -2.740161      2.090856      0.969529
  C      -3.068253      0.834616      1.430007
  C      -2.337089     -0.279800      1.022985
  C      -1.261145     -0.110179      0.162100
  C      -0.940743      1.158135     -0.288949
  O      -2.761171     -1.477090      1.537239
  C      -2.080554     -2.667705      1.176013
  C      -0.680957     -2.738713      1.734543
  C       0.379250     -3.173893      0.949725
  C       1.679054     -3.153224      1.426817
  C       1.951979     -2.658232      2.693370
  C       0.914997     -2.221387      3.493650
  C      -0.394626     -2.291699      3.026615
  N      -1.430980     -1.915696      3.935694
  O      -2.428715     -2.615215      4.008655
  O      -1.237724     -0.937015      4.644319
  C       0.297820      7.200373     -2.267982
  N      -0.285479      5.993590     -1.734626
  H      -0.457059      5.964020     -0.743392
  H       0.395830      7.076119     -3.344992
  H      -0.339517      8.061170     -2.061722
  H       1.281323      7.367357     -1.829374
  C      -2.710143      1.950395     -2.778359
  O      -3.512547      1.837463     -1.865648
  C      -2.713162      1.094556     -4.014651
  H      -1.744774      0.617519     -4.138192
  H      -3.486268      0.338010     -3.922876
  H      -2.912556      1.707275     -4.890481
>
47
Coordinates from ORCA-job /home/esp/scriptDevelopment/drFrankenstein/11_PCY_CHARMM/04_torsion_scanning/torsion_NH1-CT1-CG321-CG2R61/scans_PCY_conformer_34/PCY_conformer_34_backwards/orca_scan Relaxed Surface Scan Step 8 E -79.888064796640
  H      -2.764058     -3.437845      1.682212
  H       0.104358     -3.618403      0.019199
  H      -3.823976      0.755577      2.114882
  H      -1.660517      4.345006      0.133439
  H      -2.114668     -2.805537      0.145920
  H      -3.179905      2.977280      1.261207
  H      -0.670839     -1.023359     -0.148967
  H      -0.058918      3.694412     -0.242369
  H       2.925151     -2.708128      3.096409
  H      -0.030499      1.167951     -0.979917
  H       1.075571     -1.854077      4.515234
  H      -1.409005      3.259439     -3.768086
  H       2.411767     -3.636421      0.861947
  N      -1.692689      2.917632     -2.840824
  C      -1.334457      3.842127     -1.900823
  C      -0.828590      5.055469     -2.524720
  C      -1.131155      3.578852     -0.442922
  O      -0.833601      5.157737     -3.771366
  C      -1.562437      2.231548      0.066856
  C      -2.624858      2.104485      0.952630
  C      -2.996386      0.867504      1.431761
  C      -2.308430     -0.278043      1.036540
  C      -1.232341     -0.160144      0.167447
  C      -0.868322      1.089054     -0.302690
  O      -2.770982     -1.452054      1.571785
  C      -2.127038     -2.669390      1.233034
  C      -0.727574     -2.767317      1.787932
  C       0.317916     -3.248002      1.010045
  C       1.619604     -3.249577      1.482460
  C       1.909998     -2.732394      2.736161
  C       0.887643     -2.250667      3.529582
  C      -0.424891     -2.298410      3.068356
  N      -1.448487     -1.874873      3.971474
  O      -2.459009     -2.552277      4.070467
  O      -1.231661     -0.879869      4.649405
  C       0.118503      7.298888     -2.242112
  N      -0.365581      6.041319     -1.727238
  H      -0.417925      5.942529     -0.727192
  H       0.112227      7.239726     -3.329032
  H      -0.525375      8.119229     -1.922707
  H       1.134569      7.481424     -1.893021
  C      -2.623871      1.906913     -2.836964
  O      -3.359197      1.664942     -1.893685
  C      -2.641313      1.144596     -4.133668
  H      -1.652983      0.744768     -4.343412
  H      -3.357767      0.332370     -4.059782
  H      -2.929002      1.804013     -4.948858
>
47
Coordinates from ORCA-job /home/esp/scriptDevelopment/drFrankenstein/11_PCY_CHARMM/04_torsion_scanning/torsion_NH1-CT1-CG321-CG2R61/scans_PCY_conformer_34/PCY_conformer_34_backwards/orca_scan Relaxed Surface Scan Step 9 E -79.892449818140
  H      -2.668420     -3.495885      1.468145
  H       0.529111     -3.924464      0.697870
  H      -3.633253      0.714803      0.984742
  H      -0.046776      3.808841     -0.316158
  H      -1.598381     -3.100712      0.095947
  H      -2.685099      2.785283      0.029222
  H      -0.057837     -1.380344     -0.044817
  H       0.680189      2.882451     -1.638115
  H       2.450729     -2.582235      4.269961
  H       0.860493      0.647992     -1.006126
  H       0.325993     -1.519919      4.992613
  H      -2.844221      3.948784     -3.127138
  H       2.519422     -3.827899      2.133982
  N      -2.207314      3.237463     -2.752918
  C      -1.165549      3.834923     -2.105019
  C      -1.174532      5.276191     -2.287375
  C      -0.266865      3.130288     -1.145312
  O      -2.087750      5.810936     -2.953414
  C      -0.845112      1.861971     -0.573059
  C      -2.111637      1.870230      0.003986
  C      -2.649916      0.721408      0.540559
  C      -1.925173     -0.469714      0.522277
  C      -0.650133     -0.480953     -0.025784
  C      -0.124447      0.679606     -0.566838
  O      -2.563526     -1.549639      1.073323
  C      -1.901931     -2.803459      1.105946
  C      -0.711749     -2.818680      2.032805
  C       0.482896     -3.413230      1.647145
  C       1.607110     -3.350374      2.453127
  C       1.570611     -2.654947      3.652695
  C       0.394492     -2.056968      4.059276
  C      -0.745813     -2.166378      3.267797
  N      -1.953625     -1.607936      3.787544
  O      -2.988578     -2.247094      3.683484
  O      -1.878993     -0.532836      4.367780
  C      -0.065824      7.426125     -1.886520
  N      -0.173172      5.995626     -1.736359
  H       0.584149      5.522857     -1.271565
  H      -0.934179      7.769194     -2.446312
  H      -0.050924      7.908047     -0.908844
  H       0.841519      7.687816     -2.431649
  C      -2.367701      1.948741     -3.193672
  O      -1.499776      1.095460     -3.092488
  C      -3.712893      1.714315     -3.822260
  H      -3.845210      2.366850     -4.681619
  H      -3.783805      0.678840     -4.140271
  H      -4.497599      1.926627     -3.100560
>
47
Coordinates from ORCA-job /home/esp/scriptDevelopment/drFrankenstein/11_PCY_CHARMM/04_torsion_scanning/torsion_NH1-CT1-CG321-CG2R61/scans_PCY_conformer_34/PCY_conformer_34_backwards/orca_scan Relaxed Surface Scan Step 10 E -79.893597444430
  H      -2.755568     -3.404622      1.610271
  H       0.394890     -3.980878      0.743496
  H      -3.571669      0.826239      1.033208
  H       0.169750      3.694456     -0.484207
  H      -1.722672     -3.098156      0.188223
  H      -2.577073      2.829642     -0.013009
  H      -0.129563     -1.444451     -0.076455
  H       0.674919      2.724833     -1.877924
  H       2.494653     -2.586040      4.192942
  H       0.833261      0.518973     -1.126163
  H       0.438008     -1.420888      4.951995
  H      -2.827728      3.916353     -3.154134
  H       2.439150     -3.908098      2.102776
  N      -2.160478      3.209614     -2.827719
  C      -1.138377      3.803242     -2.146363
  C      -1.219489      5.251853     -2.211569
  C      -0.189395      3.043841     -1.284471
  O      -2.174545      5.789925     -2.813869
  C      -0.800679      1.814779     -0.657575
  C      -2.043055      1.890873     -0.035368
  C      -2.607043      0.779454      0.551989
  C      -1.933173     -0.441141      0.539277
  C      -0.682631     -0.520450     -0.058052
  C      -0.130915      0.602748     -0.649540
  O      -2.592921     -1.478464      1.144176
  C      -1.977507     -2.755068      1.197146
  C      -0.755324     -2.783765      2.081010
  C       0.402100     -3.435315      1.674585
  C       1.557052     -3.386139      2.436914
  C       1.590181     -2.647914      3.610709
  C       0.452103     -1.992828      4.037168
  C      -0.720116     -2.087838      3.291871
  N      -1.887071     -1.467009      3.833864
  O      -2.946581     -2.072387      3.794009
  O      -1.753061     -0.373910      4.368015
  C      -0.215382      7.419471     -1.661459
  N      -0.243271      5.977898     -1.625716
  H       0.549689      5.512148     -1.216274
  H      -1.118296      7.758601     -2.166296
  H      -0.193063      7.821132     -0.648314
  H       0.658681      7.772921     -2.209352
  C      -2.289161      1.931943     -3.306116
  O      -1.404264      1.094294     -3.216331
  C      -3.621568      1.686629     -3.957379
  H      -3.759385      2.362114     -4.797892
  H      -3.665793      0.660029     -4.307508
  H      -4.418616      1.859353     -3.238562
>
47
Coordinates from ORCA-job /home/esp/scriptDevelopment/drFrankenstein/11_PCY_CHARMM/04_torsion_scanning/torsion_NH1-CT1-CG321-CG2R61/scans_PCY_conformer_34/PCY_conformer_34_backwards/orca_scan Relaxed Surface Scan Step 11 E -79.894668141140
  H      -2.834657     -3.293959      1.783569
  H       0.245285     -4.031853      0.801085
  H      -3.507050      0.946188      1.099670
  H       0.353231      3.570564     -0.669564
  H      -1.858349     -3.081979      0.305469
  H      -2.476787      2.875720     -0.045991
  H      -0.218555     -1.501830     -0.096350
  H       0.633157      2.567437     -2.102478
  H       2.557640     -2.592170      4.092351
  H       0.778735      0.390207     -1.242083
  H       0.587551     -1.312009      4.894061
  H      -2.805649      3.883000     -3.209585
  H       2.351830     -3.991643      2.063109
  N      -2.115735      3.181353     -2.923186
  C      -1.118537      3.761712     -2.194869
  C      -1.265678      5.204807     -2.136212
  C      -0.135745      2.952623     -1.423847
  O      -2.245319      5.746588     -2.694570
  C      -0.774004      1.768354     -0.734944
  C      -1.984091      1.914427     -0.064293
  C      -2.567823      0.844384      0.578442
  C      -1.947164     -0.404091      0.571792
  C      -0.730018     -0.554127     -0.079012
  C      -0.158040      0.527997     -0.725382
  O      -2.621370     -1.394614      1.235946
  C      -2.052622     -2.691640      1.310680
  C      -0.792457     -2.736083      2.138749
  C       0.317649     -3.451058      1.707721
  C       1.507880     -3.420453      2.414705
  C       1.625263     -2.638759      3.554418
  C       0.535672     -1.919844      4.004107
  C      -0.672887     -1.995040      3.316966
  N      -1.787769     -1.305004      3.884749
  O      -2.870197     -1.868447      3.921007
  O      -1.586376     -0.196554      4.362813
  C      -0.368143      7.363735     -1.399246
  N      -0.326521      5.924853     -1.486291
  H       0.484102      5.464640     -1.106224
  H      -1.287491      7.700867     -1.874909
  H      -0.362347      7.678348     -0.355614
  H       0.486596      7.803974     -1.913852
  C      -2.213069      1.920572     -3.448217
  O      -1.323977      1.087321     -3.352743
  C      -3.517192      1.685097     -4.157914
  H      -3.635399      2.395990     -4.971803
  H      -3.532330      0.674650     -4.554420
  H      -4.342241      1.813749     -3.461778
>
47
Coordinates from ORCA-job /home/esp/scriptDevelopment/drFrankenstein/11_PCY_CHARMM/04_torsion_scanning/torsion_NH1-CT1-CG321-CG2R61/scans_PCY_conformer_34/PCY_conformer_34_backwards/orca_scan Relaxed Surface Scan Step 12 E -79.895605725120
  H      -2.888412     -3.172824      1.965802
  H       0.123417     -4.047275      0.870875
  H      -3.428768      1.067051      1.166490
  H       0.507970      3.434560     -0.885565
  H      -1.974828     -3.054344      0.438096
  H      -2.377671      2.916211     -0.086457
  H      -0.310631     -1.555310     -0.114216
  H       0.564061      2.405756     -2.324891
  H       2.624205     -2.568417      4.003030
  H       0.707087      0.259108     -1.363821
  H       0.731380     -1.200876      4.845355
  H      -2.765922      3.874431     -3.309272
  H       2.285210     -4.029154      2.035725
  N      -2.072869      3.164659     -3.051910
  C      -1.100792      3.709354     -2.264959
  C      -1.295276      5.135834     -2.080022
  C      -0.100016      2.851578     -1.577221
  O      -2.274190      5.696352     -2.621550
  C      -0.756206      1.717975     -0.818893
  C      -1.925625      1.934945     -0.097768
  C      -2.521130      0.909647      0.604723
  C      -1.954247     -0.364147      0.606879
  C      -0.779436     -0.585792     -0.099336
  C      -0.195306      0.451720     -0.805320
  O      -2.634990     -1.305002      1.333257
  C      -2.108711     -2.618330      1.434290
  C      -0.813888     -2.674669      2.206222
  C       0.253835     -3.437985      1.751976
  C       1.475404     -3.420239      2.403934
  C       1.667411     -2.604260      3.508888
  C       0.621091     -1.836746      3.980669
  C      -0.618988     -1.897503      3.350735
  N      -1.686025     -1.153414      3.941810
  O      -2.782641     -1.680190      4.043985
  O      -1.429832     -0.036820      4.372349
  C      -0.510084      7.240975     -1.099423
  N      -0.403869      5.822375     -1.334659
  H       0.387728      5.347899     -0.932916
  H      -1.413828      7.594852     -1.592573
  H      -0.576665      7.442941     -0.030155
  H       0.354258      7.761965     -1.512322
  C      -2.167608      1.921713     -3.616428
  O      -1.299722      1.067577     -3.504911
  C      -3.442075      1.730230     -4.390795
  H      -3.513054      2.467996     -5.185981
  H      -3.454977      0.732804     -4.819209
  H      -4.295771      1.850793     -3.728488
>
47
Coordinates from ORCA-job /home/esp/scriptDevelopment/drFrankenstein/11_PCY_CHARMM/04_torsion_scanning/torsion_NH1-CT1-CG321-CG2R61/scans_PCY_conformer_34/PCY_conformer_34_backwards/orca_scan Relaxed Surface Scan Step 13 E -79.896376587290
  H      -2.975483     -2.969410      2.223528
  H      -0.143920     -4.085248      0.910077
  H      -3.300075      1.281674      1.371052
  H       0.582416      3.384994     -1.022206
  H      -2.192013     -2.943318      0.621097
  H      -2.229960      3.035600      0.001970