      -----------------------------------------------------------      
     |                   =====================                   |     
     |                           x T B                           |     
     |                   =====================                   |     
     |                         S. Grimme                         |     
     |          Mulliken Center for Theoretical Chemistry        |     
     |                    University of Bonn                     |     
      -----------------------------------------------------------      

   * xtb version 6.7.1 (edcfbbe) compiled by 'conda@afd1a870197c' on 2025-04-11

   xtb is free software: you can redistribute it and/or modify it under
   the terms of the GNU Lesser General Public License as published by
   the Free Software Foundation, either version 3 of the License, or
   (at your option) any later version.
   
   xtb is distributed in the hope that it will be useful,
   but WITHOUT ANY WARRANTY; without even the implied warranty of
   MERCHANTABILITY or FITNESS FOR A PARTICULAR PURPOSE.  See the
   GNU Lesser General Public License for more details.
   
   Cite this work as:
   * C. Bannwarth, E. Caldeweyher, S. Ehlert, A. Hansen, P. Pracht,
     J. Seibert, S. Spicher, S. Grimme, WIREs Comput. Mol. Sci., 2020, 11,
     e01493. DOI: 10.1002/wcms.1493
   
   for GFN2-xTB:
   * C. Bannwarth, S. Ehlert and S. Grimme., J. Chem. Theory Comput., 2019,
     15, 1652-1671. DOI: 10.1021/acs.jctc.8b01176
   for GFN1-xTB:
   * S. Grimme, C. Bannwarth, P. Shushkov, J. Chem. Theory Comput., 2017,
     13, 1989-2009. DOI: 10.1021/acs.jctc.7b00118
   for GFN0-xTB:
   * P. Pracht, E. Caldeweyher, S. Ehlert, S. Grimme, ChemRxiv, 2019, preprint.
     DOI: 10.26434/chemrxiv.8326202.v1
   for GFN-FF:
   * S. Spicher and S. Grimme, Angew. Chem. Int. Ed., 2020, 59, 15665-15673.
     DOI: 10.1002/anie.202004239
   
   for ALPB and GBSA implicit solvation:
   * S. Ehlert, M. Stahn, S. Spicher, S. Grimme, J. Chem. Theory Comput.,
     2021, 17, 4250-4261. DOI: 10.1021/acs.jctc.1c00471
   
   for ddCOSMO and CPCM-X implicit solvation:
   * M. Stahn, S. Ehlert, S. Grimme, J. Phys. Chem. A,
     2023, XX, XXXX-XXXX. DOI: 10.1021/acs.jpca.3c04382
   
   for DFT-D4:
   * E. Caldeweyher, C. Bannwarth and S. Grimme, J. Chem. Phys., 2017,
     147, 034112. DOI: 10.1063/1.4993215
   * E. Caldeweyher, S. Ehlert, A. Hansen, H. Neugebauer, S. Spicher,
     C. Bannwarth and S. Grimme, J. Chem. Phys., 2019, 150, 154122.
     DOI: 10.1063/1.5090222
   * E. Caldeweyher, J.-M. Mewes, S. Ehlert and S. Grimme, Phys. Chem. Chem. Phys.
     2020, 22, 8499-8512. DOI: 10.1039/D0CP00502A
   
   for sTDA-xTB:
   * S. Grimme and C. Bannwarth, J. Chem. Phys., 2016, 145, 054103.
     DOI: 10.1063/1.4959605
   
   in the mass-spec context:
   * V. Asgeirsson, C. Bauer and S. Grimme, Chem. Sci., 2017, 8, 4879.
     DOI: 10.1039/c7sc00601b
   * J. Koopman and S. Grimme, ACS Omega 2019, 4, 12, 15120-15133.
     DOI: 10.1021/acsomega.9b02011
   
   for metadynamics refer to:
   * S. Grimme, J. Chem. Theory Comput., 2019, 155, 2847-2862
     DOI: 10.1021/acs.jctc.9b00143
   
   for SPH calculations refer to:
   * S. Spicher and S. Grimme, J. Chem. Theory Comput., 2021, 17, 1701-1714
     DOI: 10.1021/acs.jctc.0c01306
   
   for ONIOM refer to:
   * C. Plett, A. Katbashev, S. Ehlert, S. Grimme, M. Bursch,
     Phys. Chem. Chem. Phys., 2023, 25, 17860-17868. DOI: 10.1039/D3CP02178E
   
   for DIPRO refer to:
   * J. Kohn, N. Gildemeister, S. Grimme, D. Fazzi, A. Hansen,
     J. Chem. Phys., 2023, just accepted.
   
   for PTB refer to:
   * S. Grimme, M. Mueller, A. Hansen, J. Chem. Phys., 2023, 158, 124111.
     DOI: 10.1063/5.0137838
   
   with help from (in alphabetical order)
   P. Atkinson, C. Bannwarth, F. Bohle, G. Brandenburg, E. Caldeweyher
   M. Checinski, S. Dohm, S. Ehlert, S. Ehrlich, I. Gerasimov, C. Hölzer
   A. Katbashev, J. Kohn, J. Koopman, C. Lavigne, S. Lehtola, F. März, M. Müller,
   F. Musil, H. Neugebauer, J. Pisarek, C. Plett, P. Pracht, F. Pultar,
   J. Seibert, P. Shushkov, S. Spicher, M. Stahn, M. Steiner, T. Strunk,
   J. Stückrath, T. Rose, and J. Unsleber
   
 * started run on 2025/05/20 at 16:48:47.160     
   ID    Z sym.   atoms
    1    6 C      1-8
    2    8 O      9-14
    3    1 H      15-21

           -------------------------------------------------
          |                Calculation Setup                |
           -------------------------------------------------

          program call               : xtb tmpcoord --gfn2 --sp --lmo
          coordinate file            : tmpcoord
          omp threads                :                     1


           -------------------------------------------------
          |                 G F N 2 - x T B                 |
           -------------------------------------------------

        Reference                      10.1021/acs.jctc.8b01176
      * Hamiltonian:
        H0-scaling (s, p, d)           1.850000    2.230000    2.230000
        zeta-weighting                 0.500000
      * Dispersion:
        s8                             2.700000
        a1                             0.520000
        a2                             5.000000
        s9                             5.000000
      * Repulsion:
        kExp                           1.500000    1.000000
        rExp                           1.000000
      * Coulomb:
        alpha                          2.000000
        third order                    shell-resolved
        anisotropic                    true
        a3                             3.000000
        a5                             4.000000
        cn-shift                       1.200000
        cn-exp                         4.000000
        max-rad                        5.000000


          ...................................................
          :                      SETUP                      :
          :.................................................:
          :  # basis functions                  63          :
          :  # atomic orbitals                  63          :
          :  # shells                           35          :
          :  # electrons                        76          :
          :  max. iterations                   250          :
          :  Hamiltonian                  GFN2-xTB          :
          :  restarted?                      false          :
          :  GBSA solvation                  false          :
          :  PC potential                    false          :
          :  electronic temp.          300.0000000     K    :
          :  accuracy                    1.0000000          :
          :  -> integral cutoff          0.2500000E+02      :
          :  -> integral neglect         0.1000000E-07      :
          :  -> SCF convergence          0.1000000E-05 Eh   :
          :  -> wf. convergence          0.1000000E-03 e    :
          :  Broyden damping             0.4000000          :
          :  net charge                         -1          :
          :  unpaired electrons                  0          :
          ...................................................

 iter      E             dE          RMSdq      gap      omega  full diag
   1    -45.6372301 -0.456372E+02  0.549E+00    3.79       0.0  T
   2    -45.7253465 -0.881164E-01  0.286E+00    2.10       1.0  T
   3    -45.7249546  0.391863E-03  0.144E+00    1.87       1.0  T
   4    -45.7330064 -0.805180E-02  0.469E-01    1.24       1.0  T
   5    -45.7359405 -0.293407E-02  0.177E-01    1.48       1.0  T
   6    -45.7362593 -0.318753E-03  0.733E-02    1.55       1.0  T
   7    -45.7362802 -0.209501E-04  0.320E-02    1.56       1.0  T
   8    -45.7362819 -0.165480E-05  0.115E-02    1.56       1.9  T
   9    -45.7362833 -0.138863E-05  0.356E-03    1.56       6.1  T
  10    -45.7362833 -0.426027E-07  0.164E-03    1.56      13.3  T
  11    -45.7362833 -0.954602E-08  0.786E-04    1.56      27.8  T
  12    -45.7362833 -0.402742E-08  0.324E-04    1.56      67.3  T

   *** convergence criteria satisfied after 12 iterations ***

         #    Occupation            Energy/Eh            Energy/eV
      -------------------------------------------------------------
         1        2.0000           -0.6379852             -17.3605
       ...           ...                  ...                  ...
        32        2.0000           -0.3317982              -9.0287
        33        2.0000           -0.3158365              -8.5943
        34        2.0000           -0.3071405              -8.3577
        35        2.0000           -0.2731634              -7.4332
        36        2.0000           -0.2390124              -6.5039
        37        2.0000           -0.2264952              -6.1632
        38        2.0000           -0.2109039              -5.7390 (HOMO)
        39                         -0.1535069              -4.1771 (LUMO)
        40                         -0.0710771              -1.9341
        41                         -0.0404047              -1.0995
        42                         -0.0027455              -0.0747
        43                          0.0949320               2.5832
       ...                                ...                  ...
        63                          0.8925058              24.2863
      -------------------------------------------------------------
                  HL-Gap            0.0573970 Eh            1.5619 eV
             Fermi-level           -0.1822054 Eh           -4.9581 eV

 localization/xTB-IFF output generation
 averaging CT terms over            1  occ. levels
 averaging CT terms over            1  virt. levels
 dipole moment from electron density (au)
     X       Y       Z   
   5.9018  -1.7647   0.6780  total (Debye):   15.752
cpu  time for init local    0.00 s
wall time for init local    0.00 s
 doing rotations ...
 initialization of trafo matrix to unity
iteration     50  convergence  0.32589389D-05

 converged in     54 iterations, threshold :   0.99899996D-06
 doing transformations ...
 lmo centers(Z=2) and atoms on file <lmocent.coord>
 LMO Fii/eV  ncent    charge center   contributions...
    1 sigma -15.03   1.91   4.58507  -0.03996   0.16580   13  O :  0.61    7  C :  0.40
    2 sigma -14.92   1.90   8.44258  -2.17992  -0.59301   14  O :  0.59    8  C :  0.42
    3 sigma -14.86   1.87   3.53033   1.38358  -0.05973   13  O :  0.63    6  C :  0.37
    4 sigma -14.73   1.88  10.15656  -1.98470  -0.50560   14  O :  0.63   21  H :  0.37
    5 sigma -14.60   1.89  -1.35858   1.01436  -0.25772    9  O :  0.62    2  C :  0.38
    6 pi    -13.17   1.92   2.13586   3.60497  -0.16315   12  O :  0.61    6  C :  0.39
    7 pi    -13.14   1.71  -2.68346   0.50792  -0.68945    9  O :  0.72    1  C :  0.26
    8 pi    -13.12   1.90   2.08101   3.32427  -1.07136   12  O :  0.62    6  C :  0.38
    9 sigma -13.03   1.96   6.00278  -1.89155  -0.63611    7  C :  0.51    8  C :  0.50
   10 pi    -12.93   1.69  -2.80071   1.10890  -0.10442    9  O :  0.73    1  C :  0.24
   11 LP    -12.74   1.05   5.51171   1.81388  -0.97684   13  O :  0.98
   12 sigma -12.74   2.00   1.05720   1.34472   0.11596    6  C :  0.51    2  C :  0.49
   13 LP    -12.65   1.01  -2.41032   2.43670  -1.97705    9  O :  0.99
   14 sigma -12.58   1.97   7.01187  -3.48039  -1.97302    8  C :  0.51   20  H :  0.50
   15 sigma -12.49   1.97   7.25092  -1.31719  -2.45485    8  C :  0.52   19  H :  0.49
   16 LP    -12.41   1.00   9.50140  -3.70833   0.78202   14  O :  1.00
   17 sigma -12.39   1.98   3.76747  -2.21026  -0.32848    7  C :  0.52   18  H :  0.48
   18 LP    -12.33   1.16   4.27645   1.76945   1.47367   13  O :  0.92
   19 LP    -12.31   1.00   9.15572  -0.84221   1.15694   14  O :  1.00
   20 sigma -12.29   1.98   5.08584  -1.97981   1.42163    7  C :  0.53   17  H :  0.48
   21 sigma -11.90   1.99  -1.75213  -1.62023   2.18160    3  C :  0.51    4  C :  0.49
   22 sigma -11.50   1.99   0.40704  -1.78727   3.05045    3  C :  0.50   15  H :  0.50
   23 sigma -11.44   2.04  -3.58450  -1.21469   1.03678    4  C :  0.50    1  C :  0.49
   24 LP    -11.32   1.06   0.60697   4.93256  -1.00290   12  O :  0.97
   25 LP    -11.32   1.05   3.62368   4.91611  -1.19914   12  O :  0.97
   26 pi    -10.95   2.15  -0.12779  -0.51146   0.87471    2  C :  0.52    3  C :  0.44
   27 sigma -10.82   2.00  -3.74719  -2.68650   2.83193    4  C :  0.51   16  H :  0.49
   28 delpi -10.56   2.30  -0.28626   0.29813   1.45167    2  C :  0.53    3  C :  0.39
   29 pi    -10.28   1.85  -7.03964  -1.01208  -2.12505   11  O :  0.65    5  C :  0.34
   30 pi    -10.25   1.85  -7.87154   0.55234   0.19249   10  O :  0.65    5  C :  0.34
   31 pi    -10.21   1.83  -7.00912  -0.11937  -2.36052   11  O :  0.66    5  C :  0.34
   32 pi    -10.19   1.83  -7.97057  -0.34140   0.39490   10  O :  0.66    5  C :  0.33
   33 sigma -10.05   1.90  -5.27787  -0.20600  -0.19964    1  C :  0.62    5  C :  0.38
   34 LP     -9.00   1.05  -5.63561  -1.04050  -3.84513   11  O :  0.98
   35 LP     -8.96   1.05  -7.79338   0.57209   2.39744   10  O :  0.98
   36 LP     -8.96   1.07  -9.88576   0.31425   0.25492   10  O :  0.96
   37 LP     -8.90   1.07  -8.61304  -0.81305  -3.42848   11  O :  0.97
   38 delpi  -8.64   2.55  -2.91542  -0.94343   1.73389    4  C :  0.54    1  C :  0.27    3  C :  0.15
 starting deloc pi regularization ...
 thr    2.2000000000000002      # pi deloc LMO           7
 files:
 coordprot.0/xtbscreen.xyz/xtblmoinfo/lmocent.coord
 with protonation site input, xtbdock and
 LMO center info written


 SCC (total)                   0 d,  0 h,  0 min,  0.016 sec
 SCC setup                      ...        0 min,  0.000 sec (  0.494%)
 Dispersion                     ...        0 min,  0.000 sec (  0.548%)
 classical contributions        ...        0 min,  0.000 sec (  0.137%)
 integral evaluation            ...        0 min,  0.001 sec (  9.028%)
 iterations                     ...        0 min,  0.006 sec ( 37.710%)
 molecular gradient             ...        0 min,  0.004 sec ( 24.281%)
 printout                       ...        0 min,  0.005 sec ( 27.758%)

         :::::::::::::::::::::::::::::::::::::::::::::::::::::
         ::                     SUMMARY                     ::
         :::::::::::::::::::::::::::::::::::::::::::::::::::::
         :: total energy             -45.321447246919 Eh    ::
         :: gradient norm              0.000924109746 Eh/a0 ::
         :: HOMO-LUMO gap              1.561852839533 eV    ::
         ::.................................................::
         :: SCC energy               -45.736304172591 Eh    ::
         :: -> isotropic ES            0.241499890319 Eh    ::
         :: -> anisotropic ES          0.007286400091 Eh    ::
         :: -> anisotropic XC         -0.004374912827 Eh    ::
         :: -> dispersion             -0.018040293501 Eh    ::
         :: repulsion energy           0.414856925672 Eh    ::
         :: add. restraining           0.000000000000 Eh    ::
         :: total charge              -1.000000000000 e     ::
         :::::::::::::::::::::::::::::::::::::::::::::::::::::

           -------------------------------------------------
          |                Property Printout                |
           -------------------------------------------------

    * Orbital Energies and Occupations

         #    Occupation            Energy/Eh            Energy/eV
      -------------------------------------------------------------
         1        2.0000           -0.6379852             -17.3605
       ...           ...                  ...                  ...
        26        2.0000           -0.3715646             -10.1108
        27        2.0000           -0.3628793              -9.8744
        28        2.0000           -0.3589281              -9.7669
        29        2.0000           -0.3561162              -9.6904
        30        2.0000           -0.3449559              -9.3867
        31        2.0000           -0.3410951              -9.2817
        32        2.0000           -0.3317982              -9.0287
        33        2.0000           -0.3158365              -8.5943
        34        2.0000           -0.3071405              -8.3577
        35        2.0000           -0.2731634              -7.4332
        36        2.0000           -0.2390124              -6.5039
        37        2.0000           -0.2264952              -6.1632
        38        2.0000           -0.2109039              -5.7390 (HOMO)
        39                         -0.1535069              -4.1771 (LUMO)
        40                         -0.0710771              -1.9341
        41                         -0.0404047              -1.0995
        42                         -0.0027455              -0.0747
        43                          0.0949320               2.5832
        44                          0.1069980               2.9116
        45                          0.1604673               4.3665
        46                          0.1734625               4.7202
        47                          0.1884413               5.1277
        48                          0.2071691               5.6374
        49                          0.2188997               5.9566
       ...                                ...                  ...
        63                          0.8925058              24.2863
      -------------------------------------------------------------
                  HL-Gap            0.0573970 Eh            1.5619 eV
             Fermi-level           -0.1822054 Eh           -4.9581 eV

     #   Z          covCN         q      C6AA      α(0)
     1   6 C        3.074     0.086    26.017     8.363
     2   6 C        3.084     0.048    26.829     8.491
     3   6 C        3.007    -0.061    29.491     8.908
     4   6 C        3.010    -0.067    29.661     8.934
     5   6 C        2.679     0.377    20.622     7.431
     6   6 C        2.698     0.336    21.283     7.551
     7   6 C        3.682     0.074    19.544     6.331
     8   6 C        3.672     0.079    19.489     6.327
     9   8 O        1.731    -0.163    16.750     5.526
    10   8 O        0.857    -0.549    24.890     6.689
    11   8 O        0.857    -0.544    24.780     6.674
    12   8 O        0.857    -0.398    21.636     6.236
    13   8 O        1.704    -0.289    18.799     5.854
    14   8 O        1.655    -0.435    21.546     6.266
    15   1 H        0.926     0.015     2.808     2.620
    16   1 H        0.926     0.028     2.609     2.526
    17   1 H        0.924     0.062     2.177     2.307
    18   1 H        0.924     0.043     2.406     2.426
    19   1 H        0.924     0.044     2.403     2.424
    20   1 H        0.923     0.025     2.658     2.550
    21   1 H        0.805     0.288     0.758     1.368

 Mol. C6AA /au·bohr⁶  :       5918.846221
 Mol. C8AA /au·bohr⁸  :     136695.989561
 Mol. α(0) /au        :        115.801812


Wiberg/Mayer (AO) data.
largest (>0.10) Wiberg bond orders for each atom

 ---------------------------------------------------------------------------
     #   Z sym  total        # sym  WBO       # sym  WBO       # sym  WBO
 ---------------------------------------------------------------------------
     1   6 C    3.838 --     4 C    1.471     9 O    1.194     5 C    0.821
                             2 C    0.124
     2   6 C    3.900 --     3 C    1.442     9 O    1.087     6 C    1.073
                             1 C    0.124
     3   6 C    3.985 --     2 C    1.442     4 C    1.385    15 H    0.973
     4   6 C    3.981 --     1 C    1.471     3 C    1.385    16 H    0.976
     5   6 C    3.949 --    11 O    1.554    10 O    1.544     1 C    0.821
     6   6 C    3.919 --    12 O    1.710     2 C    1.073    13 O    1.036
     7   6 C    3.947 --     8 C    0.993    13 O    0.971    18 H    0.964
                            17 H    0.963
     8   6 C    3.960 --    14 O    0.998     7 C    0.993    19 H    0.973
                            20 H    0.969
     9   8 O    2.472 --     1 C    1.194     2 C    1.087
    10   8 O    1.896 --     5 C    1.544    11 O    0.250
    11   8 O    1.909 --     5 C    1.554    10 O    0.250
    12   8 O    2.038 --     6 C    1.710    13 O    0.140
    13   8 O    2.243 --     6 C    1.036     7 C    0.971    12 O    0.140
    14   8 O    1.955 --     8 C    0.998    21 H    0.904
    15   1 H    0.999 --     3 C    0.973
    16   1 H    0.999 --     4 C    0.976
    17   1 H    0.996 --     7 C    0.963
    18   1 H    0.998 --     7 C    0.964
    19   1 H    0.998 --     8 C    0.973
    20   1 H    0.999 --     8 C    0.969
    21   1 H    0.917 --    14 O    0.904
 ---------------------------------------------------------------------------

Topologies differ in total number of bonds
Writing topology from bond orders to xtbtopo.mol

molecular dipole:
                 x           y           z       tot (Debye)
 q only:        5.571      -1.508       0.667
   full:        5.902      -1.765       0.678      15.752
molecular quadrupole (traceless):
                xx          xy          yy          xz          yz          zz
 q only:      -42.200      -7.367      19.826     -15.328       1.756      22.374
  q+dip:      -45.734      -7.302      20.468     -19.049       1.243      25.266
   full:      -46.047      -7.831      20.845     -19.149       2.424      25.202


           -------------------------------------------------
          | TOTAL ENERGY              -45.321447246919 Eh   |
          | GRADIENT NORM               0.000924109746 Eh/α |
          | HOMO-LUMO GAP               1.561852839533 eV   |
           -------------------------------------------------

------------------------------------------------------------------------
 * finished run on 2025/05/20 at 16:48:47.180     
------------------------------------------------------------------------
 total:
 * wall-time:     0 d,  0 h,  0 min,  0.020 sec
 *  cpu-time:     0 d,  0 h,  0 min,  0.020 sec
 * ratio c/w:     1.000 speedup
 SCF:
 * wall-time:     0 d,  0 h,  0 min,  0.016 sec
 *  cpu-time:     0 d,  0 h,  0 min,  0.016 sec
 * ratio c/w:     1.000 speedup

