
                                 *****************
                                 * O   R   C   A *
                                 *****************

                                            #,                                       
                                            ###                                      
                                            ####                                     
                                            #####                                    
                                            ######                                   
                                           ########,                                 
                                     ,,################,,,,,                         
                               ,,#################################,,                 
                          ,,##########################################,,             
                       ,#########################################, ''#####,          
                    ,#############################################,,   '####,        
                  ,##################################################,,,,####,       
                ,###########''''           ''''###############################       
              ,#####''   ,,,,##########,,,,          '''####'''          '####       
            ,##' ,,,,###########################,,,                        '##       
           ' ,,###''''                  '''############,,,                           
         ,,##''                                '''############,,,,        ,,,,,,###''
      ,#''                                            '''#######################'''  
     '                                                          ''''####''''         
             ,#######,   #######,   ,#######,      ##                                
            ,#'     '#,  ##    ##  ,#'     '#,    #''#        ,####,    ,#,          
            ##       ##  ##   ,#'  ##            #'  '#       #'       ,# #          
            ##       ##  #######   ##           ,######,      #####,      #          
            '#,     ,#'  ##    ##  '#,     ,#' ,#      #,     #,   #      #          
             '#######'   ##     ##  '#######'  #'      '#     '####' #    #          



                #########################################################
                #                        -***-                          #
                #          Department of theory and spectroscopy        #
                #                                                       #
                #                      Frank Neese                      #
                #                                                       #
                #     Directorship, Architecture, Infrastructure        #
                #                    SHARK, DRIVERS                     #
                #        Core code/Algorithms in most modules           #
                #                                                       #
                #        Max Planck Institute fuer Kohlenforschung      #
                #                Kaiser Wilhelm Platz 1                 #
                #                 D-45470 Muelheim/Ruhr                 #
                #                      Germany                          #
                #                                                       #
                #                  All rights reserved                  #
                #                        -***-                          #
                #########################################################


                         Program Version 6.1.0  -  RELEASE   -
                                (GIT: $679e74b$)
                          ($2025-06-10 18:02:51 +0200$)


 With contributions from (in alphabetic order):
[Max-Planck-Institut fuer Kohlenforschung]                               
  Daniel Aravena         : Magnetic Suceptibility                        
  Michael Atanasov       : Ab Initio Ligand Field Theory (pilot matlab implementation)
  Alexander A. Auer      : GIAO ZORA, VPT2 properties, NMR spectrum      
  Ute Becker             : All parallelization in ORCA, NUMFREQ, NUMCALC 
  Giovanni Bistoni       : ED, misc. LED, open-shell LED, HFLD           
  Dmytro Bykov           : pre 5.0 version of the SCF Hessian            
  Marcos Casanova-Páez   : Triplet and SCS-CIS(D). UHF-(DLPNO)-IP/EA/STEOM-CCSD. UHF-CVS-IP/STEOM-CCSD   
  Vijay G. Chilkuri      : MRCI spin determinant printing, contributions to CSF-ICE 
  Pauline Colinet        : FMM embedding                                 
  Dipayan Datta          : RHF DLPNO-CCSD density                        
  Achintya Kumar Dutta   : EOM-CC, STEOM-CC                              
  Nicolas Foglia         : Exact transition moments, OPA infrastructure, MCD improvements    
  Dmitry Ganyushin       : Spin-Orbit,Spin-Spin,Magnetic field MRCI      
  Miquel Garcia-Rates    : C-PCM and meta-GGA Hessian, CCSD/C-PCM, Gaussian charge scheme 
  Tiago L. C. Gouveia    : GS-ROHF, GS-ROCIS                             
  Yang Guo               : DLPNO-NEVPT2, F12-NEVPT2, CIM, IAO-localization        
  Andreas Hansen         : Spin unrestricted coupled pair/coupled cluster methods 
  Ingolf Harden          : AUTO-CI MPn and infrastructure                
  Benjamin Helmich-Paris : MC-RPA, TRAH-(SCF,CASSCF), AVAS, COSX integrals, SCF dyn. polar., MC-PDFT, srDFT 
  Lee Huntington         : MR-EOM, pCC                                   
  Robert Izsak           : Overlap fitted RIJCOSX, COSX-SCS-MP3, EOM     
  Riya Kayal             : Wick's Theorem for AUTO-CI, AUTO-CI UHF-CCSDT 
  Emily Kempfer          : AUTO-CI RHF CISDT and CCSDT, approximate NEVPT4
  Christian Kollmar      : KDIIS, OOCD, Brueckner-CCSD(T), CCSD density, CASPT2, CASPT2-K, improved NEVPT2 
  Axel Koslowski         : Symmetry handling                             
  Simone Kossmann        : meta-GGA functionals, TD-DFT gradient, OOMP2, (MP2 Hessian; deprecated post 5.0) 
  Lucas Lang             : DCDCAS, Hyperfine gauge corrections, ICE-SOC+SSC
  Marvin Lechner         : AUTO-CI (C++ implementation), FIC-MRCC        
  Spencer Leger          : CASSCF response                               
  Dagmar Lenk            : GEPOL surface, SMD, ORCA-2-JSON               
  Dimitrios Liakos       : Extrapolation schemes; Compound Job, Property file
  Dimitrios Manganas     : Further ROCIS development; embedding schemes. LFT, Crystal Embedding 
  Dimitrios Pantazis     : SARC Basis sets                               
  Anastasios Papadopoulos: AUTO-CI, single reference methods and gradients 
  Taras Petrenko         : pre 6.0 DFT Hessian and TD-DFT gradient,  ECA, NRVS 
  Petra Pikulova         : Analytic Raman intensities                    
  Peter Pinski           : DLPNO-MP2, DLPNO-MP2 Gradient                 
  Shashank Vittal Rao    : ES-AILFT, MagRelax                            
  Christoph Reimann      : Effective Core Potentials                     
  Marius Retegan         : Local ZFS, SOC                                
  Christoph Riplinger    : Optimizer, TS searches, QM/MM, DLPNO-CCSD(T), (RO)-DLPNO pert. Triples 
  Michael Roemelt        : Original ROCIS implementation, recursive CI coupling coefficients
  Masaaki Saitow         : Open-shell DLPNO-CCSD energy and density      
  Barbara Sandhoefer     : DKH picture change effects                    
  Yorick L. A. Schmerwitz: GMF and freeze-and-release deltaSCF, NEB S-IDPP initial path                    
  Kantharuban Sivalingam : CASSCF convergence/infrastructure, NEVPT2, NEVPT3, NEVPT4(SD), FIC-MRCI and CEPA variants
  Bernardo de Souza      : ESD, SOC TD-DFT                               
  Georgi L. Stoychev     : AutoAux, RI-MP2 NMR, DLPNO-MP2 response, X2C  
  Van Anh Tran           : RI-MP2 g-tensors                              
  Willem Van den Heuvel  : Paramagnetic NMR                              
  Zikuan Wang            : NOTCH, Electric field optimization            
  Frank Wennmohs         : Technical directorship and infrastructure     
  Hang Xu                : AUTO-CI-Response properties                   
                                                                         
[FACCTs GmbH]                                                            
  Markus Bursch, Nicolas Foglia, Miquel Garcia-Rates, Ingolf Harden, Hagen Neugebauer, Anastasios Papadopoulos, 
  Christoph Riplinger, Bernardo de Souza, Georgi L. Stoychev                                                    
                                                                 
  APM, various basis sets, CI-OPT, improved COSX, DLPNO-Multilevel,           
  DOCKER, DRACO, updates on ESD, Fragmentator, GOAT, IRC, LR-CPCM, L-BFGS, MBIS, meta-GGA TD-DFT gradient, ML-optimized integration grids, 
  MM, NACMEs, nearIR, NEB, NEB-TS, NL-DFT gradient (VV10), 2- and 3-layer-ONIOM, interface openCOSMO-RS, QMMM,   
  Crystal-QMMM, RESP, rigid body optimization, SF, symmetry and pop. for TD-DFT, various functionals, SOLVATOR                                   
                                                                         
[Other institutions]                                                     
  V. Asgeirsson          : NEB                                           
  Christoph Bannwarth    : sTDA-DFT, sTD-DFT, PBEh-3c, B97-3c, D3        
  Giovanni Bistoni       : ETS/NOCV, ADLD/ADEX, COVALED                  
  Martin Brehm           : Molecular dynamics                            
  Ronald Cardenas        : ETS/NOCV                                      
  Martina Colucci        : COVALED                                       
  Sebastian Ehlert       : rSCAN, r2SCAN, r2SCAN-3c, D4, dhf basis sets  
  Marvin Friede          : D4 for Fr, Ra, Ac-Lr                          
  Lars Goerigk           : TD-DFT with DH, B97 family of functionals     
  Stefan Grimme          : VdW corrections, initial TS optimization, DFT functionals, gCP, sTDA/sTD-DF 
  Waldemar Hujo          : DFT-NL                                        
  H. Jonsson             : NEB                                           
  Holger Kruse           : gCP                                           
  Marcel Mueller         : wB97X-3c, vDZP basis set                      
  Hagen Neugebauer       : wr2SCAN, Native XTB                           
  Gianluca Regni         : ADLD/ADEX                                     
  Tobias Risthaus        : pre 6.0 range-separated hybrid DFT and stability analysis
  Lukas Wittmann         : regularized MP2, r2SCAN double-hybrids, wr2SCAN        
                                                                         
We gratefully acknowledge several colleagues who have allowed us to      
interface, adapt or use parts of their codes:                            
  Ed Valeev, F. Pavosevic, A. Kumar             : LibInt (2-el integral package), F12 methods 
  Garnet Chan, S. Sharma, J. Yang, R. Olivares  : DMRG                   
  Ulf Ekstrom                                   : XCFun DFT Library      
  Mihaly Kallay                                 : mrcc  (arbitrary order and MRCC methods)
  Frank Weinhold                                : gennbo (NPA and NBO analysis)           
  Simon Mueller                                 : openCOSMO-RS                            
  Christopher J. Cramer and Donald G. Truhlar   : smd solvation model                     
  S Lehtola, MJT Oliveira, MAL Marques          : LibXC Library                           
  Liviu Ungur et al                             : ANISO software                          


 Your calculation uses the libint2 library for the computation of 2-el integrals
 For citations please refer to: http://libint.valeyev.net

 Your ORCA version has been built with support for libXC version: 7.0.0
 For citations please refer to: https://libxc.gitlab.io

 This ORCA versions uses:
   CBLAS   interface :  Fast vector & matrix operations
   LAPACKE interface :  Fast linear algebra routines
   SCALAPACK package :  Parallel linear algebra routines
   Shared memory     :  Shared parallel matrices
   BLAS/LAPACK       :  OpenBLAS 0.3.29  USE64BITINT DYNAMIC_ARCH NO_AFFINITY Haswell SINGLE_THREADED
        Core in use  :  Haswell
   Copyright (c) 2011-2014, The OpenBLAS Project


  ***********************************
  * Starting time: Wed Jul 16 15:48:04 2025
  * Host name:     MONSTER
  * Process ID:    442507
  * Working dir.:  /home/esp/scriptDevelopment/drFrankenstein
  ***********************************



***************************************
The coordinates will be read from file: /home/esp/scriptDevelopment/drFrankenstein/11_PCY_CHARMM/03_GOAT_conformers/PCY_conformer_18.xyz
***************************************


Your calculation utilizes the semiempirical GFN2-xTB method
Please cite in your paper:
Bannwarth, C.; Ehlert S.; Grimme, S. J. Chem. Theory Comput. 2019, 15, 1652.
   

================================================================================

================================================================================
                                        WARNINGS
                       Please study these warnings very carefully!
================================================================================


WARNING: Geometry Optimization
  ===> : Switching off AutoStart
         For restart on a previous wavefunction, please use MOREAD

WARNING: Found dipole moment calculation with XTB calculation
  ===> : Switching off dipole moment calculation


================================================================================
                                       INPUT FILE
================================================================================
NAME = /home/esp/scriptDevelopment/drFrankenstein/11_PCY_CHARMM/04_torsion_scanning/torsion_NH1-CT1-CG321-CG2R61/scans_PCY_conformer_18/PCY_conformer_18_opt/orca_opt.inp
|  1>  # --------------------------------- #
|  2>  #  Geometry Optimisation            #
|  3>  # --------------------------------- #
|  4> ! XTB2 ALPB(water) Opt
|  5> *xyzfile 0 1 /home/esp/scriptDevelopment/drFrankenstein/11_PCY_CHARMM/03_GOAT_conformers/PCY_conformer_18.xyz
|  6> 
|  7> 
|  8>                          ****END OF INPUT****
================================================================================

                       *****************************
                       * Geometry Optimization Run *
                       *****************************

Geometry optimization settings:
Update method            Update   .... BFGS
Choice of coordinates    CoordSys .... (2022) Redundant Internals
Initial Hessian          InHess   .... Almloef's Model
Max. no of cycles        MaxIter  .... 141

Convergence Tolerances:
Energy Change            TolE     ....  5.0000e-06 Eh
Max. Gradient            TolMAXG  ....  3.0000e-04 Eh/bohr
RMS Gradient             TolRMSG  ....  1.0000e-04 Eh/bohr
Max. Displacement        TolMAXD  ....  4.0000e-03 bohr
RMS Displacement         TolRMSD  ....  2.0000e-03 bohr
Strict Convergence                .... False

------------------------------------------------------------------------------
                        ORCA OPTIMIZATION COORDINATE SETUP
------------------------------------------------------------------------------

The optimization will be done in redundant internal coordinates (2022)
Making redundant internal coordinates   ...  (2022 redundants) done
Evaluating the initial hessian          ...  (Almloef) done
Evaluating the coordinates              ...  done
Calculating the B-matrix                .... done
Calculating the G-matrix                .... done
The number of degrees of freedom        ....  227

    -----------------------------------------------------------------
                    Redundant Internal Coordinates


    -----------------------------------------------------------------
         Definition                    Initial Value    Approx d2E/dq
    -----------------------------------------------------------------
      1. B(N  13,H  11)                  1.0274         0.405982   
      2. B(C  14,N  13)                  1.3630         0.617936   
      3. B(C  15,C  14)                  1.4544         0.493104   
      4. B(C  16,H   3)                  1.0920         0.357526   
      5. B(C  16,C  14)                  1.4897         0.433219   
      6. B(C  16,H   7)                  1.0949         0.353667   
      7. B(O  17,C  15)                  1.2391         0.974272   
      8. B(O  17,H  11)                  1.9589         0.013251   
      9. B(C  18,C  16)                  1.5098         0.402421   
     10. B(C  19,C  18)                  1.3872         0.631169   
     11. B(C  19,H   5)                  1.0798         0.373803   
     12. B(C  20,C  19)                  1.3828         0.641483   
     13. B(C  20,H   2)                  1.0783         0.375902   
     14. B(C  21,C  20)                  1.3897         0.625456   
     15. B(C  22,C  21)                  1.3937         0.616320   
     16. B(C  22,H   6)                  1.0781         0.376213   
     17. B(C  23,C  22)                  1.3788         0.651118   
     18. B(C  23,C  18)                  1.3911         0.622331   
     19. B(C  23,H   9)                  1.0811         0.372043   
     20. B(O  24,C  21)                  1.3669         0.609072   
     21. B(C  25,O  24)                  1.4094         0.521047   
     22. B(C  25,H   4)                  1.0986         0.348847   
     23. B(C  25,H   0)                  1.0957         0.352632   
     24. B(C  26,C  25)                  1.5099         0.402257   
     25. B(C  27,C  26)                  1.3896         0.625737   
     26. B(C  27,H   1)                  1.0803         0.373201   
     27. B(C  28,C  27)                  1.3837         0.639349   
     28. B(C  28,H  12)                  1.0791         0.374772   
     29. B(C  29,C  28)                  1.3859         0.634280   
     30. B(C  29,H   8)                  1.0783         0.375889   
     31. B(C  30,C  29)                  1.3813         0.644994   
     32. B(C  30,H  10)                  1.0794         0.374462   
     33. B(C  31,C  30)                  1.3888         0.627652   
     34. B(C  31,C  26)                  1.3938         0.616222   
     35. B(N  32,C  31)                  1.4453         0.456662   
     36. B(O  33,N  32)                  1.2092         0.973966   
     37. B(O  34,N  32)                  1.2150         0.953378   
     38. B(N  36,C  35)                  1.4410         0.463955   
     39. B(N  36,C  15)                  1.3535         0.639875   
     40. B(H  37,N  36)                  1.0065         0.438276   
     41. B(H  38,C  35)                  1.0926         0.356631   
     42. B(H  39,O  34)                  2.3582         0.010000   
     43. B(H  39,C  35)                  1.0899         0.360193   
     44. B(H  40,C  35)                  1.0888         0.361714   
     45. B(C  41,N  13)                  1.3690         0.604575   
     46. B(O  42,C  41)                  1.2171         1.056162   
     47. B(C  43,C  41)                  1.5106         0.401141   
     48. B(H  44,C  43)                  1.0882         0.362497   
     49. B(H  45,C  43)                  1.0855         0.366115   
     50. B(H  46,C  43)                  1.0885         0.362077   
     51. A(H  11,N  13,C  41)          119.6988         0.353294   
     52. A(C  14,N  13,C  41)          131.7023         0.426226   
     53. A(H  11,N  13,C  14)          108.5962         0.354605   
     54. A(N  13,C  14,C  15)          111.1650         0.413695   
     55. A(N  13,C  14,C  16)          123.5430         0.404318   
     56. A(C  15,C  14,C  16)          125.1951         0.391103   
     57. A(O  17,C  15,N  36)          122.8276         0.467664   
     58. A(C  14,C  15,O  17)          119.4047         0.448941   
     59. A(C  14,C  15,N  36)          117.7491         0.416269   
     60. A(H   3,C  16,H   7)          108.0635         0.289692   
     61. A(H   3,C  16,C  14)          108.3607         0.331947   
     62. A(C  14,C  16,C  18)          110.2249         0.377522   
     63. A(H   3,C  16,C  18)          110.2689         0.327926   
     64. A(H   7,C  16,C  14)          110.2621         0.331351   
     65. A(H   7,C  16,C  18)          109.6241         0.327339   
     66. A(C  16,C  18,C  23)          121.7110         0.402173   
     67. A(C  19,C  18,C  23)          118.5020         0.435758   
     68. A(C  16,C  18,C  19)          119.7464         0.403175   
     69. A(C  18,C  19,C  20)          121.3012         0.438145   
     70. A(H   5,C  19,C  18)          119.4651         0.356227   
     71. A(H   5,C  19,C  20)          119.2317         0.357209   
     72. A(H   2,C  20,C  21)          121.2032         0.356016   
     73. A(C  19,C  20,C  21)          119.7288         0.437427   
     74. A(H   2,C  20,C  19)          119.0647         0.357549   
     75. A(C  22,C  21,O  24)          115.3781         0.429393   
     76. A(C  20,C  21,O  24)          125.2710         0.430529   
     77. A(C  20,C  21,C  22)          119.3433         0.434285   
     78. A(C  21,C  22,C  23)          120.2585         0.437442   
     79. A(H   6,C  22,C  23)          121.2951         0.358507   
     80. A(H   6,C  22,C  21)          118.4297         0.355178   
     81. A(C  18,C  23,C  22)          120.7723         0.438208   
     82. A(H   9,C  23,C  22)          119.2198         0.357828   
     83. A(H   9,C  23,C  18)          120.0061         0.355091   
     84. A(C  21,O  24,C  25)          119.4735         0.414002   
     85. A(H   0,C  25,H   4)          108.5649         0.288446   
     86. A(O  24,C  25,C  26)          113.7152         0.387329   
     87. A(H   4,C  25,C  26)          109.5058         0.326579   
     88. A(H   0,C  25,C  26)          109.9406         0.327159   
     89. A(H   4,C  25,O  24)          110.8136         0.338835   
     90. A(H   0,C  25,O  24)          104.0831         0.339446   
     91. A(C  27,C  26,C  31)          117.7564         0.434308   
     92. A(C  25,C  26,C  31)          121.3770         0.401446   
     93. A(C  25,C  26,C  27)          120.7542         0.402532   
     94. A(C  26,C  27,C  28)          121.0973         0.437200   
     95. A(H   1,C  27,C  28)          119.8550         0.356909   
     96. A(H   1,C  27,C  26)          119.0450         0.355607   
     97. A(C  27,C  28,C  29)          120.3116         0.438270   
     98. A(H  12,C  28,C  29)          120.0236         0.356681   
     99. A(H  12,C  28,C  27)          119.6510         0.357164   
    100. A(C  28,C  29,C  30)          119.5876         0.438966   
    101. A(H   8,C  29,C  30)          119.9616         0.357879   
    102. A(H   8,C  29,C  28)          120.4508         0.356862   
    103. A(C  29,C  30,C  31)          119.7056         0.438135   
    104. A(H  10,C  30,C  31)          119.1147         0.355996   
    105. A(H  10,C  30,C  29)          121.1741         0.357648   
    106. A(C  30,C  31,N  32)          117.1062         0.409231   
    107. A(C  26,C  31,N  32)          121.4284         0.407901   
    108. A(C  26,C  31,C  30)          121.4515         0.434547   
    109. A(O  33,N  32,O  34)          125.5164         0.496472   
    110. A(C  31,N  32,O  34)          116.7991         0.435182   
    111. A(C  31,N  32,O  33)          117.5862         0.436860   
    112. A(N  36,C  35,H  38)          110.4494         0.333577   
    113. A(H  39,C  35,H  40)          110.4839         0.291056   
    114. A(H  38,C  35,H  40)          109.1341         0.290602   
    115. A(N  36,C  35,H  40)          107.8043         0.334361   
    116. A(H  38,C  35,H  39)          108.9355         0.290409   
    117. A(N  36,C  35,H  39)          110.0242         0.334127   
    118. A(C  35,N  36,H  37)          116.9963         0.342272   
    119. A(C  15,N  36,H  37)          119.6056         0.361389   
    120. A(C  15,N  36,C  35)          122.3977         0.409131   
    121. A(O  42,C  41,C  43)          122.9228         0.438845   
    122. A(N  13,C  41,C  43)          113.4649         0.397346   
    123. A(N  13,C  41,O  42)          123.6121         0.469723   
    124. A(H  45,C  43,H  46)          109.5646         0.291849   
    125. A(H  44,C  43,H  46)          107.3392         0.291393   
    126. A(C  41,C  43,H  46)          108.9258         0.328438   
    127. A(H  44,C  43,H  45)          109.6086         0.291902   
    128. A(C  41,C  43,H  45)          112.4424         0.329040   
    129. A(C  41,C  43,H  44)          108.8238         0.328501   
    130. D(C  16,C  14,N  13,C  41)      1.6913         0.030904   
    131. D(C  15,C  14,N  13,C  41)    178.2754         0.030904   
    132. D(C  16,C  14,N  13,H  11)   -177.6976         0.030904   
    133. D(C  15,C  14,N  13,H  11)     -1.1134         0.030904   
    134. D(N  36,C  15,C  14,N  13)    178.0170         0.016558   
    135. D(O  17,C  15,C  14,C  16)    176.0551         0.016558   
    136. D(N  36,C  15,C  14,C  16)     -5.4669         0.016558   
    137. D(O  17,C  15,C  14,N  13)     -0.4610         0.016558   
    138. D(H   7,C  16,C  14,C  15)     66.3460         0.013856   
    139. D(C  18,C  16,C  14,N  13)    121.2804         0.013856   
    140. D(H   3,C  16,C  14,C  15)   -175.5694         0.013856   
    141. D(H   3,C  16,C  14,N  13)      0.5320         0.013856   
    142. D(H   7,C  16,C  14,N  13)   -117.5527         0.013856   
    143. D(C  19,C  18,C  16,H   3)     66.6943         0.012012   
    144. D(C  19,C  18,C  16,H   7)   -174.4505         0.012012   
    145. D(C  19,C  18,C  16,C  14)    -52.9037         0.012012   
    146. D(C  23,C  18,C  16,H   7)      3.1984         0.012012   
    147. D(C  23,C  18,C  16,H   3)   -115.6569         0.012012   
    148. D(C  20,C  19,C  18,C  16)    175.5715         0.027628   
    149. D(H   5,C  19,C  18,C  23)    178.3663         0.027628   
    150. D(C  20,C  19,C  18,C  23)     -2.1526         0.027628   
    151. D(H   5,C  19,C  18,C  16)     -3.9097         0.027628   
    152. D(C  21,C  20,C  19,C  18)     -0.3522         0.028599   
    153. D(C  21,C  20,C  19,H   5)    179.1302         0.028599   
    154. D(H   2,C  20,C  19,C  18)   -179.7033         0.028599   
    155. D(H   2,C  20,C  19,H   5)     -0.2209         0.028599   
    156. D(O  24,C  21,C  20,C  19)   -176.1726         0.027099   
    157. D(O  24,C  21,C  20,H   2)      3.1643         0.027099   
    158. D(C  22,C  21,C  20,C  19)      2.7721         0.027099   
    159. D(C  22,C  21,C  20,H   2)   -177.8910         0.027099   
    160. D(H   6,C  22,C  21,C  20)    178.7888         0.026266   
    161. D(C  23,C  22,C  21,O  24)    176.3649         0.026266   
    162. D(C  23,C  22,C  21,C  20)     -2.6815         0.026266   
    163. D(H   6,C  22,C  21,O  24)     -2.1648         0.026266   
    164. D(C  18,C  23,C  22,C  21)      0.1517         0.029526   
    165. D(C  18,C  23,C  22,H   6)    178.6385         0.029526   
    166. D(H   9,C  23,C  22,C  21)   -179.3565         0.029526   
    167. D(H   9,C  23,C  22,H   6)     -0.8696         0.029526   
    168. D(C  22,C  23,C  18,C  19)      2.2475         0.026812   
    169. D(C  22,C  23,C  18,C  16)   -175.4297         0.026812   
    170. D(H   9,C  23,C  18,C  19)   -178.2482         0.026812   
    171. D(H   9,C  23,C  18,C  16)      4.0746         0.026812   
    172. D(C  25,O  24,C  21,C  22)   -167.9517         0.027149   
    173. D(C  25,O  24,C  21,C  20)     11.0301         0.027149   
    174. D(C  26,C  25,O  24,C  21)     54.1225         0.021528   
    175. D(H   4,C  25,O  24,C  21)    -69.7364         0.021528   
    176. D(H   0,C  25,O  24,C  21)    173.7426         0.021528   
    177. D(C  31,C  26,C  25,H   4)    159.4310         0.012003   
    178. D(C  31,C  26,C  25,H   0)    -81.3716         0.012003   
    179. D(C  27,C  26,C  25,O  24)   -141.1934         0.012003   
    180. D(C  27,C  26,C  25,H   4)    -16.6283         0.012003   
    181. D(C  27,C  26,C  25,H   0)    102.5691         0.012003   
    182. D(C  28,C  27,C  26,C  31)     -0.6572         0.027125   
    183. D(C  28,C  27,C  26,C  25)    175.5412         0.027125   
    184. D(H   1,C  27,C  26,C  31)    179.9441         0.027125   
    185. D(H   1,C  27,C  26,C  25)     -3.8575         0.027125   
    186. D(C  29,C  28,C  27,C  26)     -1.7743         0.028397   
    187. D(C  29,C  28,C  27,H   1)    177.6196         0.028397   
    188. D(H  12,C  28,C  27,C  26)    179.5753         0.028397   
    189. D(H  12,C  28,C  27,H   1)     -1.0309         0.028397   
    190. D(C  30,C  29,C  28,H  12)   -179.4355         0.027919   
    191. D(H   8,C  29,C  28,C  27)   -178.1360         0.027919   
    192. D(H   8,C  29,C  28,H  12)      0.5094         0.027919   
    193. D(C  30,C  29,C  28,C  27)      1.9191         0.027919   
    194. D(C  31,C  30,C  29,C  28)      0.3660         0.028935   
    195. D(C  31,C  30,C  29,H   8)   -179.5792         0.028935   
    196. D(H  10,C  30,C  29,C  28)    179.4987         0.028935   
    197. D(H  10,C  30,C  29,H   8)     -0.4465         0.028935   
    198. D(N  32,C  31,C  30,C  29)    175.7908         0.027301   
    199. D(N  32,C  31,C  30,H  10)     -3.3599         0.027301   
    200. D(C  26,C  31,C  30,C  29)     -2.8701         0.027301   
    201. D(C  26,C  31,C  30,H  10)    177.9792         0.027301   
    202. D(N  32,C  31,C  26,C  27)   -175.6199         0.026257   
    203. D(N  32,C  31,C  26,C  25)      8.2067         0.026257   
    204. D(C  30,C  31,C  26,C  27)      2.9831         0.026257   
    205. D(C  30,C  31,C  26,C  25)   -173.1903         0.026257   
    206. D(O  34,N  32,C  31,C  30)     48.7862         0.016427   
    207. D(O  34,N  32,C  31,C  26)   -132.5526         0.016427   
    208. D(O  33,N  32,C  31,C  30)   -127.8101         0.016427   
    209. D(O  33,N  32,C  31,C  26)     50.8512         0.016427   
    210. D(H  37,N  36,C  35,H  39)     44.0549         0.018381   
    211. D(H  37,N  36,C  35,H  38)    -76.2438         0.018381   
    212. D(C  15,N  36,C  35,H  40)     -3.8980         0.018381   
    213. D(C  15,N  36,C  35,H  39)   -124.4445         0.018381   
    214. D(C  15,N  36,C  35,H  38)    115.2569         0.018381   
    215. D(H  37,N  36,C  15,O  17)   -173.4820         0.033325   
    216. D(H  37,N  36,C  15,C  14)      8.0959         0.033325   
    217. D(C  35,N  36,C  15,O  17)     -5.2723         0.033325   
    218. D(C  35,N  36,C  15,C  14)    176.3056         0.033325   
    219. D(C  43,C  41,N  13,C  14)   -179.9609         0.029485   
    220. D(C  43,C  41,N  13,H  11)     -0.6278         0.029485   
    221. D(O  42,C  41,N  13,C  14)     -0.1185         0.029485   
    222. D(O  42,C  41,N  13,H  11)    179.2147         0.029485   
    223. D(H  46,C  43,C  41,N  13)    119.5483         0.011939   
    224. D(H  45,C  43,C  41,O  42)    178.0608         0.011939   
    225. D(H  45,C  43,C  41,N  13)     -2.0955         0.011939   
    226. D(H  44,C  43,C  41,O  42)     56.4322         0.011939   
    227. D(H  44,C  43,C  41,N  13)   -123.7241         0.011939   
    -----------------------------------------------------------------

Number of atoms                         .... 47
Number of degrees of freedom            .... 227


         *************************************************************
         *                GEOMETRY OPTIMIZATION CYCLE   1            *
         *************************************************************
---------------------------------
CARTESIAN COORDINATES (ANGSTROEM)
---------------------------------
  H    -0.431620   -2.794160    3.306560
  H     0.125550    0.204020    4.458520
  H     0.665880    0.319720    1.617030
  H     1.161410    1.794730   -3.041520
  H     0.844680   -1.573580    3.071300
  H     0.779030    1.856870   -0.266770
  H    -0.544860   -2.818580   -1.016430
  H    -0.214420    0.949430   -3.766210
  H    -3.544150    2.216580    3.607360
  H    -0.408030   -1.263070   -2.925920
  H    -4.160030    0.399550    2.038070
  H    -1.032810    4.479380   -2.139640
  H    -1.412810    2.076800    4.852510
  N    -0.261060    3.873520   -2.444260
  C    -0.711690    2.588180   -2.495420
  C    -2.103790    2.502960   -2.082900
  C     0.151000    1.427010   -2.851220
  O    -2.700880    3.533150   -1.740150
  C     0.163750    0.421760   -1.724870
  C     0.481670    0.833130   -0.438740
  C     0.415380   -0.039730    0.631740
  C     0.016420   -1.354790    0.424980
  C    -0.255680   -1.790280   -0.870690
  C    -0.183360   -0.909730   -1.929180
  O    -0.160000   -2.289720    1.406460
  C    -0.160580   -1.885930    2.756810
  C    -1.148670   -0.785600    3.061180
  C    -0.823070    0.237960    3.942810
  C    -1.686240    1.297960    4.157410
  C    -2.883670    1.376340    3.464060
  C    -3.230160    0.368520    2.585230
  C    -2.379660   -0.715480    2.411320
  N    -2.839270   -1.781690    1.550540
  O    -2.812680   -2.907560    1.990720
  O    -3.279980   -1.458290    0.465490
  C    -4.048920    1.074800   -1.664080
  N    -2.699750    1.288380   -2.123060
  H    -2.146680    0.469160   -2.312990
  H    -4.692850    0.779310   -2.495880
  H    -4.066000    0.290340   -0.907590
  H    -4.411520    2.013330   -1.247990
  C     0.966720    4.419250   -2.706510
  O     1.932710    3.767360   -3.057550
  C     1.012680    5.916930   -2.514640
  H     1.350260    6.379280   -3.440080
  H     0.048630    6.328330   -2.232420
  H     1.748100    6.152170   -1.747390

----------------------------
CARTESIAN COORDINATES (A.U.)
----------------------------
  NO LB    ZA    FRAG    MASS        X           Y           Z
   0 H   1.0000    0     1.008   -0.815644   -5.280197    6.248493
   1 H   1.0000    0     1.008    0.237255    0.385542    8.425382
   2 H   1.0000    0     1.008    1.258331    0.604183    3.055744
   3 H   1.0000    0     1.008    2.194747    3.391548   -5.747640
   4 H   1.0000    0     1.008    1.596214   -2.973635    5.803916
   5 H   1.0000    0     1.008    1.472153    3.508976   -0.504122
   6 H   1.0000    0     1.008   -1.029636   -5.326344   -1.920774
   7 H   1.0000    0     1.008   -0.405195    1.794163   -7.117105
   8 H   1.0000    0     1.008   -6.697473    4.188729    6.816922
   9 H   1.0000    0     1.008   -0.771065   -2.386856   -5.529187
  10 H   1.0000    0     1.008   -7.861317    0.755040    3.851394
  11 H   1.0000    0     1.008   -1.951728    8.464801   -4.043334
  12 H   1.0000    0     1.008   -2.669824    3.924583    9.169915
  13 N   7.0000    0    14.007   -0.493332    7.319892   -4.618982
  14 C   6.0000    0    12.011   -1.344899    4.890951   -4.715660
  15 C   6.0000    0    12.011   -3.975587    4.729909   -3.936111
  16 C   6.0000    0    12.011    0.285349    2.696658   -5.388025
  17 O   8.0000    0    15.999   -5.103924    6.676686   -3.288407
  18 C   6.0000    0    12.011    0.309443    0.797011   -3.259532
  19 C   6.0000    0    12.011    0.910224    1.574388   -0.829098
  20 C   6.0000    0    12.011    0.784954   -0.075079    1.193816
  21 C   6.0000    0    12.011    0.031029   -2.560182    0.803096
  22 C   6.0000    0    12.011   -0.483165   -3.383139   -1.645366
  23 C   6.0000    0    12.011   -0.346500   -1.719141   -3.645622
  24 O   8.0000    0    15.999   -0.302356   -4.326944    2.657824
  25 C   6.0000    0    12.011   -0.303452   -3.563891    5.209616
  26 C   6.0000    0    12.011   -2.170672   -1.484569    5.784792
  27 C   6.0000    0    12.011   -1.555377    0.449679    7.450831
  28 C   6.0000    0    12.011   -3.186532    2.452789    7.856366
  29 C   6.0000    0    12.011   -5.449347    2.600906    6.546125
  30 C   6.0000    0    12.011   -6.104118    0.696402    4.885377
  31 C   6.0000    0    12.011   -4.496906   -1.352061    4.556734
  32 N   7.0000    0    14.007   -5.365443   -3.366906    2.930096
  33 O   8.0000    0    15.999   -5.315195   -5.494492    3.761916
  34 O   8.0000    0    15.999   -6.198264   -2.755769    0.879649
  35 C   6.0000    0    12.011   -7.651350    2.031078   -3.144655
  36 N   7.0000    0    14.007   -5.101788    2.434685   -4.012002
  37 H   1.0000    0     1.008   -4.056637    0.886584   -4.370918
  38 H   1.0000    0     1.008   -8.868201    1.472682   -4.716530
  39 H   1.0000    0     1.008   -7.683626    0.548663   -1.715097
  40 H   1.0000    0     1.008   -8.336565    3.804642   -2.358359
  41 C   6.0000    0    12.011    1.826836    8.351172   -5.114563
  42 O   8.0000    0    15.999    3.652293    7.119279   -5.777932
  43 C   6.0000    0    12.011    1.913688   11.181377   -4.751981
  44 H   1.0000    0     1.008    2.551622   12.055092   -6.500809
  45 H   1.0000    0     1.008    0.091897   11.958811   -4.218662
  46 H   1.0000    0     1.008    3.303430   11.625916   -3.302089

      -----------------------------------------------------------      
     |                   =====================                   |     
     |                           x T B                           |     
     |                   =====================                   |     
     |                         S. Grimme                         |     
     |          Mulliken Center for Theoretical Chemistry        |     
     |                    University of Bonn                     |     
      -----------------------------------------------------------      

   * xtb version 6.7.1 (edcfbbe) compiled by 'albert@albert-system' on 2024-07-22

   xtb is free software: you can redistribute it and/or modify it under
   the terms of the GNU Lesser General Public License as published by
   the Free Software Foundation, either version 3 of the License, or
   (at your option) any later version.
   
   xtb is distributed in the hope that it will be useful,
   but WITHOUT ANY WARRANTY; without even the implied warranty of
   MERCHANTABILITY or FITNESS FOR A PARTICULAR PURPOSE.  See the
   GNU Lesser General Public License for more details.
   
   Cite this work as:
   * C. Bannwarth, E. Caldeweyher, S. Ehlert, A. Hansen, P. Pracht,
     J. Seibert, S. Spicher, S. Grimme, WIREs Comput. Mol. Sci., 2020, 11,
     e01493. DOI: 10.1002/wcms.1493
   
   for GFN2-xTB:
   * C. Bannwarth, S. Ehlert and S. Grimme., J. Chem. Theory Comput., 2019,
     15, 1652-1671. DOI: 10.1021/acs.jctc.8b01176
   for GFN1-xTB:
   * S. Grimme, C. Bannwarth, P. Shushkov, J. Chem. Theory Comput., 2017,
     13, 1989-2009. DOI: 10.1021/acs.jctc.7b00118
   for GFN0-xTB:
   * P. Pracht, E. Caldeweyher, S. Ehlert, S. Grimme, ChemRxiv, 2019, preprint.
     DOI: 10.26434/chemrxiv.8326202.v1
   for GFN-FF:
   * S. Spicher and S. Grimme, Angew. Chem. Int. Ed., 2020, 59, 15665-15673.
     DOI: 10.1002/anie.202004239
   
   for ALPB and GBSA implicit solvation:
   * S. Ehlert, M. Stahn, S. Spicher, S. Grimme, J. Chem. Theory Comput.,
     2021, 17, 4250-4261. DOI: 10.1021/acs.jctc.1c00471
   
   for ddCOSMO and CPCM-X implicit solvation:
   * M. Stahn, S. Ehlert, S. Grimme, J. Phys. Chem. A,
     2023, XX, XXXX-XXXX. DOI: 10.1021/acs.jpca.3c04382
   
   for DFT-D4:
   * E. Caldeweyher, C. Bannwarth and S. Grimme, J. Chem. Phys., 2017,
     147, 034112. DOI: 10.1063/1.4993215
   * E. Caldeweyher, S. Ehlert, A. Hansen, H. Neugebauer, S. Spicher,
     C. Bannwarth and S. Grimme, J. Chem. Phys., 2019, 150, 154122.
     DOI: 10.1063/1.5090222
   * E. Caldeweyher, J.-M. Mewes, S. Ehlert and S. Grimme, Phys. Chem. Chem. Phys.
     2020, 22, 8499-8512. DOI: 10.1039/D0CP00502A
   
   for sTDA-xTB:
   * S. Grimme and C. Bannwarth, J. Chem. Phys., 2016, 145, 054103.
     DOI: 10.1063/1.4959605
   
   in the mass-spec context:
   * V. Asgeirsson, C. Bauer and S. Grimme, Chem. Sci., 2017, 8, 4879.
     DOI: 10.1039/c7sc00601b
   * J. Koopman and S. Grimme, ACS Omega 2019, 4, 12, 15120-15133.
     DOI: 10.1021/acsomega.9b02011
   
   for metadynamics refer to:
   * S. Grimme, J. Chem. Theory Comput., 2019, 155, 2847-2862
     DOI: 10.1021/acs.jctc.9b00143
   
   for SPH calculations refer to:
   * S. Spicher and S. Grimme, J. Chem. Theory Comput., 2021, 17, 1701-1714
     DOI: 10.1021/acs.jctc.0c01306
   
   for ONIOM refer to:
   * C. Plett, A. Katbashev, S. Ehlert, S. Grimme, M. Bursch,
     Phys. Chem. Chem. Phys., 2023, 25, 17860-17868. DOI: 10.1039/D3CP02178E
   
   for DIPRO refer to:
   * J. Kohn, N. Gildemeister, S. Grimme, D. Fazzi, A. Hansen,
     J. Chem. Phys., 2023, just accepted.
   
   for PTB refer to:
   * S. Grimme, M. Mueller, A. Hansen, J. Chem. Phys., 2023, 158, 124111.
     DOI: 10.1063/5.0137838
   
   with help from (in alphabetical order)
   P. Atkinson, C. Bannwarth, F. Bohle, G. Brandenburg, E. Caldeweyher
   M. Checinski, S. Dohm, S. Ehlert, S. Ehrlich, I. Gerasimov, C. Hölzer
   A. Katbashev, J. Kohn, J. Koopman, C. Lavigne, S. Lehtola, F. März, M. Müller,
   F. Musil, H. Neugebauer, J. Pisarek, C. Plett, P. Pracht, F. Pultar,
   J. Seibert, P. Shushkov, S. Spicher, M. Stahn, M. Steiner, T. Strunk,
   J. Stückrath, T. Rose, and J. Unsleber
   
 * started run on 2025/07/16 at 15:48:04.129     
   ID    Z sym.   atoms
    1    1 H      1-13, 38-41, 45-47
    2    7 N      14, 33, 37
    3    6 C      15-17, 19-24, 26-32, 36, 42, 44
    4    8 O      18, 25, 34, 35, 43

           -------------------------------------------------
          |                Calculation Setup                |
           -------------------------------------------------

          program call               : /home/esp/bin/orca_6_1_0/otool_xtb /home/esp/scriptDevelopment/drFrankenstein/11_PCY_CHARMM/04_torsion_scanning/torsion_NH1-CT1-CG321-CG2R61/scans_PCY_conformer_18/PCY_conformer_18_opt/orca_opt_XTB.xyz --grad -c 0 -u 0 -P 1 --namespace /home/esp/scriptDevelopment/drFrankenstein/11_PCY_CHARMM/04_torsion_scanning/torsion_NH1-CT1-CG321-CG2R61/scans_PCY_conformer_18/PCY_conformer_18_opt/orca_opt --input /home/esp/scriptDevelopment/drFrankenstein/11_PCY_CHARMM/04_torsion_scanning/torsion_NH1-CT1-CG321-CG2R61/scans_PCY_conformer_18/PCY_conformer_18_opt/orca_opt_XTB.input.tmp --alpb WATER --acc 0.200000
          calculation namespace      : /home/esp/scriptDevelopment/drFrankenstein/11_PCY_CHARMM/04_torsion_scanning/torsion_NH1-CT1-CG321-CG2R61/scans_PCY_conformer_18/PCY_conformer_18_opt/orca_opt
          coordinate file            : /home/esp/scriptDevelopment/drFrankenstein/11_PCY_CHARMM/04_torsion_scanning/torsion_NH1-CT1-CG321-CG2R61/scans_PCY_conformer_18/PCY_conformer_18_opt/orca_opt_XTB.xyz
          omp threads                :                     1


           -------------------------------------------------
          |                 G F N 2 - x T B                 |
           -------------------------------------------------

        Reference                      10.1021/acs.jctc.8b01176
      * Hamiltonian:
        H0-scaling (s, p, d)           1.850000    2.230000    2.230000
        zeta-weighting                 0.500000
      * Dispersion:
        s8                             2.700000
        a1                             0.520000
        a2                             5.000000
        s9                             5.000000
      * Repulsion:
        kExp                           1.500000    1.000000
        rExp                           1.000000
      * Coulomb:
        alpha                          2.000000
        third order                    shell-resolved
        anisotropic                    true
        a3                             3.000000
        a5                             4.000000
        cn-shift                       1.200000
        cn-exp                         4.000000
        max-rad                        5.000000

      * Solvation model:               ALPB
        Solvent                        WATER
        Parameter file                 internal GFN2-xTB/ALPB
        Dielectric constant                8.0200E+01
        Reference state                gsolv [1 M gas/solution]
        Free energy shift                  1.0808E-03 Eh       6.7819E-01 kcal/mol
        Temperature                        2.9815E+02 K
        Density                            1.0000E+00 kg/L
        Solvent mass                       1.8000E+01 g/mol
        Interaction kernel             P16
        Born radius scaling (c1)           1.4744E+00
        Born radii integrator          GBOBC
        Born offset                        0.0000E+00 a0       0.0000E+00 AA
        H-bond correction              true
        Ion screening                  false
        Surface tension                    1.0000E-05 Eh       1.5569E+01 dyn/cm
        Grid points                               230 per atom

          ...................................................
          :                      SETUP                      :
          :.................................................:
          :  # basis functions                 128          :
          :  # atomic orbitals                 128          :
          :  # shells                           74          :
          :  # electrons                       141          :
          :  max. iterations                   250          :
          :  Hamiltonian                  GFN2-xTB          :
          :  restarted?                      false          :
          :  GBSA solvation                   true          :
          :  PC potential                    false          :
          :  electronic temp.          300.0000000     K    :
          :  accuracy                    0.2000000          :
          :  -> integral cutoff          0.3198970E+02      :
          :  -> integral neglect         0.2000000E-08      :
          :  -> SCF convergence          0.2000000E-06 Eh   :
          :  -> wf. convergence          0.2000000E-04 e    :
          :  Broyden damping             0.4000000          :
          :  net charge                          0          :
          :  unpaired electrons                  0          :
          ...................................................

 iter      E             dE          RMSdq      gap      omega  full diag
   1    -80.7350394 -0.807350E+02  0.490E+00    1.27       0.0  T
   2    -80.9395243 -0.204485E+00  0.253E+00    0.49       1.0  T
   3    -80.9442341 -0.470980E-02  0.118E+00    0.37       1.0  T
   4    -80.8421776  0.102056E+00  0.153E+00    0.10       1.0  T
   5    -80.9472320 -0.105054E+00  0.312E-01    0.54       1.0  T
   6    -80.9496972 -0.246525E-02  0.162E-01    0.39       1.0  T
   7    -80.9497102 -0.129790E-04  0.139E-01    0.36       1.0  T
   8    -80.9499726 -0.262355E-03  0.941E-02    0.27       1.0  T
   9    -80.9501281 -0.155510E-03  0.617E-02    0.22       1.0  T
  10    -80.9502344 -0.106374E-03  0.269E-02    0.18       1.0  T
  11    -80.9502601 -0.256783E-04  0.309E-03    0.17       4.7  T
  12    -80.9502601  0.424951E-07  0.248E-03    0.17       5.9  T
  13    -80.9502603 -0.167869E-06  0.120E-03    0.17      12.2  T
  14    -80.9502603 -0.192413E-07  0.721E-04    0.17      20.2  T
  15    -80.9502603 -0.176441E-07  0.254E-04    0.17      57.4  T
  16    -80.9502603 -0.156528E-08  0.126E-04    0.17     115.9  T
  17    -80.9502603 -0.523045E-09  0.305E-05    0.17     477.9  T

   *** convergence criteria satisfied after 17 iterations ***

         #    Occupation            Energy/Eh            Energy/eV
      -------------------------------------------------------------
         1        2.0000           -0.7828723             -21.3030
       ...           ...                  ...                  ...
        65        2.0000           -0.4243940             -11.5483
        66        2.0000           -0.4147248             -11.2852
        67        2.0000           -0.4134498             -11.2505
        68        2.0000           -0.4028847             -10.9631
        69        2.0000           -0.3993916             -10.8680
        70        2.0000           -0.3839515             -10.4479
        71        0.9617           -0.3269228              -8.8960 (HOMO)
        72        0.0383           -0.3207973              -8.7293 (LUMO)
        73                         -0.2518822              -6.8541
        74                         -0.2471269              -6.7247
        75                         -0.2320739              -6.3151
        76                         -0.2236519              -6.0859
       ...                                ...                  ...
       128                          0.6560733              17.8527
      -------------------------------------------------------------
                  HL-Gap            0.0061255 Eh            0.1667 eV
             Fermi-level           -0.3396486 Eh           -9.2423 eV

 SCC (total)                   0 d,  0 h,  0 min,  0.078 sec
 SCC setup                      ...        0 min,  0.001 sec (  1.398%)
 Dispersion                     ...        0 min,  0.000 sec (  0.548%)
 classical contributions        ...        0 min,  0.000 sec (  0.079%)
 integral evaluation            ...        0 min,  0.006 sec (  7.857%)
 iterations                     ...        0 min,  0.046 sec ( 58.893%)
 molecular gradient             ...        0 min,  0.023 sec ( 28.988%)
 printout                       ...        0 min,  0.002 sec (  2.184%)

         :::::::::::::::::::::::::::::::::::::::::::::::::::::
         ::                     SUMMARY                     ::
         :::::::::::::::::::::::::::::::::::::::::::::::::::::
         :: total energy             -79.898229001515 Eh    ::
         :: total w/o Gsasa/hb       -79.896235046070 Eh    ::
         :: gradient norm              0.039643964317 Eh/a0 ::
         :: HOMO-LUMO gap              0.166684487295 eV    ::
         ::.................................................::
         :: SCC energy               -80.948283491627 Eh    ::
         :: -> isotropic ES            0.179996883631 Eh    ::
         :: -> anisotropic ES          0.002692142290 Eh    ::
         :: -> anisotropic XC          0.021642469523 Eh    ::
         :: -> dispersion             -0.054179589711 Eh    ::
         :: -> Gsolv                  -0.030665943760 Eh    ::
         ::    -> Gelec               -0.028671988315 Eh    ::
         ::    -> Gsasa                0.003341141946 Eh    ::
         ::    -> Ghb                 -0.006415857088 Eh    ::
         ::    -> Gshift               0.001080759698 Eh    ::
         :: repulsion energy           1.050054490113 Eh    ::
         :: add. restraining           0.000000000000 Eh    ::
         :: total charge              -0.000000000000 e     ::
         :::::::::::::::::::::::::::::::::::::::::::::::::::::


Property printout bound to 'properties.out'

           -------------------------------------------------
          | TOTAL ENERGY              -79.898229001515 Eh   |
          | GRADIENT NORM               0.039643964317 Eh/α |
          | HOMO-LUMO GAP               0.166684487295 eV   |
           -------------------------------------------------

------------------------------------------------------------------------
 * finished run on 2025/07/16 at 15:48:04.256     
------------------------------------------------------------------------
 total:
 * wall-time:     0 d,  0 h,  0 min,  0.127 sec
 *  cpu-time:     0 d,  0 h,  0 min,  0.080 sec
 * ratio c/w:     0.632 speedup
 SCF:
 * wall-time:     0 d,  0 h,  0 min,  0.081 sec
 *  cpu-time:     0 d,  0 h,  0 min,  0.065 sec
 * ratio c/w:     0.806 speedup


-------------------------   --------------------
FINAL SINGLE POINT ENERGY       -79.898229001510
-------------------------   --------------------


-------------
DIPOLE MOMENT
-------------
                                X             Y             Z
Total Dipole Moment    :      0.28200       1.36300       1.77600
                        -----------------------------------------
Magnitude (a.u.)       :      2.25643
Magnitude (Debye)      :      5.73539


------------------
CARTESIAN GRADIENT
------------------

   1   H   :   -0.000089876   -0.000108085    0.000354107
   2   H   :    0.000614588    0.000131603    0.000496249
   3   H   :    0.000228972    0.000314969    0.000545860
   4   H   :    0.000346977    0.000375001   -0.000002211
   5   H   :    0.000594124    0.000327507    0.000824802
   6   H   :    0.000007560    0.000286700   -0.000032526
   7   H   :    0.000088609    0.000347766   -0.000007283
   8   H   :   -0.000254762   -0.000416751   -0.000720772
   9   H   :   -0.000143071    0.000621389    0.000223509
  10   H   :   -0.000155981   -0.000060672   -0.000664734
  11   H   :   -0.000169220    0.000160418   -0.000236237
  12   H   :   -0.001431169   -0.001259488    0.000166980
  13   H   :    0.000176656    0.000498796    0.000447163
  14   N   :   -0.001211944    0.000847029    0.000876821
  15   C   :   -0.000388408   -0.000427600   -0.000208131
  16   C   :   -0.006643872    0.014656250    0.004108764
  17   C   :    0.000946304    0.000361756    0.000690189
  18   O   :    0.007800883   -0.010213306   -0.003616571
  19   C   :    0.000140294    0.000048552   -0.000371566
  20   C   :   -0.000137386   -0.000024389   -0.000143191
  21   C   :   -0.000388772   -0.000503070   -0.000904900
  22   C   :   -0.000340569   -0.001058356    0.001303338
  23   C   :   -0.000217154   -0.000171680    0.000203016
  24   C   :    0.000279914   -0.000112139    0.001292463
  25   O   :    0.000556303    0.002901696    0.002759434
  26   C   :   -0.000842090   -0.001965698   -0.005471839
  27   C   :   -0.000294931    0.000501004   -0.000494398
  28   C   :   -0.001079340    0.000329250   -0.000453000
  29   C   :   -0.000318877   -0.000655287   -0.000774266
  30   C   :    0.000501670   -0.000544338   -0.000052666
  31   C   :    0.001195164   -0.001201104    0.000762458
  32   C   :    0.001088040    0.003122870    0.002218934
  33   N   :   -0.004943444   -0.015553026   -0.008882872
  34   O   :    0.000615350    0.011044211   -0.000197773
  35   O   :    0.002903673    0.001816966    0.006356724
  36   C   :    0.001303572    0.000113685    0.000626402
  37   N   :   -0.000954454   -0.003888142   -0.000025499
  38   H   :   -0.000505640    0.000200718    0.000358038
  39   H   :   -0.000646327   -0.000226592   -0.000629001
  40   H   :   -0.000222812   -0.000161922    0.000121140
  41   H   :    0.000396581    0.000276003   -0.000249670
  42   C   :    0.012542608   -0.011015232   -0.004990237
  43   O   :   -0.010556045    0.007054017    0.003895827
  44   C   :    0.000409686    0.001412977    0.000034717
  45   H   :   -0.000166429    0.000482932   -0.000270421
  46   H   :   -0.000694989    0.000933865    0.000296757
  47   H   :    0.000060035    0.000398947    0.000436072

Difference to translation invariance:
           :   -0.0000000000    0.0000000000   -0.0000000000

Difference to rotation invariance:
           :   -0.0001082210   -0.0001599153    0.0000565339

Norm of the Cartesian gradient     ...    0.0396439643
RMS gradient                       ...    0.0033386241
MAX gradient                       ...    0.0155530259
------------------------------------------------------------------------------
                         ORCA GEOMETRY RELAXATION STEP
------------------------------------------------------------------------------

Reading the OPT-File                    .... done
Getting information on internals        .... done
Copying old internal coords+grads       .... done
Making the new internal coordinates     .... (2022 redundants) done
Validating the new internal coordinates .... (2022 redundants) done
Calculating the B-matrix                .... done
Calculating the G,G- and P matrices     .... done
Transforming gradient to internals      .... done
Projecting the internal gradient        .... done
Number of atoms                         ....  47
Number of internal coordinates          .... 227
Current Energy                          ....   -79.898229002 Eh
Current gradient norm                   ....     0.039643964 Eh/bohr
Maximum allowed component of the step   ....  0.300
Current trust radius                    ....  0.300
Evaluating the initial hessian          ....  (Almloef) done
Projecting the Hessian                  .... done
Forming the augmented Hessian           .... done
Diagonalizing the augmented Hessian     .... done
Last element of RFO vector              ....  0.991716965
Lowest eigenvalues of augmented Hessian:
 -0.001176427  0.010171582  0.011939114  0.012026647  0.012544619
Length of the computed step             ....  0.129515221
The final length of the internal step   ....  0.129515221
Converting the step to Cartesian space:
 Initial RMS(Int)=    0.0085962272
Transforming coordinates:
 Iter   0:  RMS(Cart)=    0.1025010220 RMS(Int)=    0.0096110803
 Iter   5:  RMS(Cart)=    0.0000000120 RMS(Int)=    0.0000000083
done
Storing new coordinates                 .... done

                                .--------------------.
          ----------------------|Geometry convergence|-------------------------
          Item                value                   Tolerance       Converged
          ---------------------------------------------------------------------
          RMS gradient        0.0017168041            0.0001000000      NO
          MAX gradient        0.0132800812            0.0003000000      NO
          RMS step            0.0085962272            0.0020000000      NO
          MAX step            0.0491190139            0.0040000000      NO
          -------------------------------------------------------------------------
          ........................................................
          Max(Bonds)      0.0201      Max(Angles)    0.62
          Max(Dihed)        2.81      Max(Improp)    0.00
          ---------------------------------------------------------------------

The optimization has not yet converged - more geometry cycles are needed


    ---------------------------------------------------------------------------
                         Redundant Internal Coordinates
                            (Angstroem and degrees)

        Definition                    Value    dE/dq     Step     New-Value
    ----------------------------------------------------------------------------
     1. B(N  13,H  11)                1.0274 -0.000203 -0.0002    1.0272   
     2. B(C  14,N  13)                1.3630 -0.000381  0.0009    1.3639   
     3. B(C  15,C  14)                1.4544  0.000954 -0.0002    1.4542   
     4. B(C  16,H   3)                1.0920  0.000447 -0.0007    1.0913   
     5. B(C  16,C  14)                1.4897  0.000307 -0.0005    1.4892   
     6. B(C  16,H   7)                1.0949  0.000869 -0.0013    1.0936   
     7. B(O  17,C  15)                1.2391 -0.013159  0.0072    1.2462   
     8. B(O  17,H  11)                1.9589 -0.001410  0.0200    1.9789   
     9. B(C  18,C  16)                1.5098 -0.000726  0.0008    1.5105   
    10. B(C  19,C  18)                1.3872 -0.000530  0.0004    1.3877   
    11. B(C  19,H   5)                1.0798  0.000268 -0.0004    1.0795   
    12. B(C  20,C  19)                1.3828 -0.000266  0.0002    1.3830   
    13. B(C  20,H   2)                1.0783  0.000656 -0.0009    1.0774   
    14. B(C  21,C  20)                1.3897 -0.000129  0.0001    1.3898   
    15. B(C  22,C  21)                1.3937 -0.000545  0.0004    1.3942   
    16. B(C  22,H   6)                1.0781 -0.000354  0.0005    1.0786   
    17. B(C  23,C  22)                1.3788 -0.000436  0.0003    1.3790   
    18. B(C  23,C  18)                1.3911 -0.000066  0.0000    1.3911   
    19. B(C  23,H   9)                1.0811  0.000666 -0.0009    1.0802   
    20. B(O  24,C  21)                1.3669 -0.002282  0.0019    1.3688   
    21. B(C  25,O  24)                1.4094 -0.004995  0.0050    1.4144   
    22. B(C  25,H   4)                1.0986  0.000873 -0.0013    1.0973   
    23. B(C  25,H   0)                1.0957  0.000290 -0.0004    1.0953   
    24. B(C  26,C  25)                1.5099 -0.000212  0.0004    1.5102   
    25. B(C  27,C  26)                1.3896  0.000106 -0.0001    1.3895   
    26. B(C  27,H   1)                1.0803  0.000773 -0.0011    1.0792   
    27. B(C  28,C  27)                1.3837 -0.000621  0.0005    1.3842   
    28. B(C  28,H  12)                1.0791  0.000693 -0.0010    1.0782   
    29. B(C  29,C  28)                1.3859 -0.000757  0.0006    1.3865   
    30. B(C  29,H   8)                1.0783  0.000601 -0.0008    1.0775   
    31. B(C  30,C  29)                1.3813  0.000037 -0.0000    1.3813   
    32. B(C  30,H  10)                1.0794  0.000269 -0.0004    1.0790   
    33. B(C  31,C  30)                1.3888 -0.000975  0.0008    1.3896   
    34. B(C  31,C  26)                1.3938 -0.000465  0.0005    1.3943   
    35. B(N  32,C  31)                1.4453  0.004089 -0.0047    1.4406   
    36. B(O  33,N  32)                1.2092 -0.010342  0.0056    1.2148   
    37. B(O  34,N  32)                1.2150 -0.006495  0.0037    1.2186   
    38. B(N  36,C  35)                1.4410 -0.000813  0.0009    1.4419   
    39. B(N  36,C  15)                1.3535  0.003428 -0.0028    1.3507   
    40. B(H  37,N  36)                1.0065 -0.000510  0.0006    1.0071   
    41. B(H  38,C  35)                1.0926  0.000920 -0.0014    1.0913   
    42. B(H  39,O  34)                2.3582 -0.000296  0.0201    2.3783   
    43. B(H  39,C  35)                1.0899 -0.000072  0.0003    1.0902   
    44. B(H  40,C  35)                1.0888  0.000011 -0.0000    1.0888   
    45. B(C  41,N  13)                1.3690  0.001253 -0.0011    1.3679   
    46. B(O  42,C  41)                1.2171 -0.013280  0.0066    1.2237   
    47. B(C  43,C  41)                1.5106  0.003252 -0.0043    1.5063   
    48. B(H  44,C  43)                1.0882  0.000383 -0.0006    1.0876   
    49. B(H  45,C  43)                1.0855  0.001048 -0.0015    1.0840   
    50. B(H  46,C  43)                1.0885  0.000434 -0.0006    1.0879   
    51. A(H  11,N  13,C  41)          119.70  0.001203   -0.27    119.43   
    52. A(C  14,N  13,C  41)          131.70 -0.001256    0.11    131.81   
    53. A(H  11,N  13,C  14)          108.60  0.000054    0.16    108.76   
    54. A(N  13,C  14,C  15)          111.16 -0.000067    0.34    111.50   
    55. A(N  13,C  14,C  16)          123.54 -0.001933    0.18    123.72   
    56. A(C  15,C  14,C  16)          125.20  0.001984   -0.49    124.70   
    57. A(O  17,C  15,N  36)          122.83  0.000001   -0.06    122.76   
    58. A(C  14,C  15,O  17)          119.40 -0.000462    0.25    119.65   
    59. A(C  14,C  15,N  36)          117.75  0.000468   -0.19    117.56   
    60. A(H   3,C  16,H   7)          108.06 -0.000058   -0.03    108.03   
    61. A(H   3,C  16,C  14)          108.36 -0.000194    0.13    108.49   
    62. A(C  14,C  16,C  18)          110.22 -0.000985    0.07    110.30   
    63. A(H   3,C  16,C  18)          110.27  0.000732   -0.04    110.23   
    64. A(H   7,C  16,C  14)          110.26  0.000630   -0.12    110.14   
    65. A(H   7,C  16,C  18)          109.62 -0.000099   -0.02    109.61   
    66. A(C  16,C  18,C  23)          121.71  0.000338   -0.06    121.65   
    67. A(C  19,C  18,C  23)          118.50  0.000146   -0.01    118.49   
    68. A(C  16,C  18,C  19)          119.75 -0.000492    0.08    119.83   
    69. A(C  18,C  19,C  20)          121.30 -0.000303    0.04    121.34   
    70. A(H   5,C  19,C  18)          119.47  0.000062   -0.00    119.46   
    71. A(H   5,C  19,C  20)          119.23  0.000238   -0.03    119.20   
    72. A(H   2,C  20,C  21)          121.20  0.000068   -0.01    121.20   
    73. A(C  19,C  20,C  21)          119.73  0.000115   -0.02    119.71   
    74. A(H   2,C  20,C  19)          119.06 -0.000184    0.03    119.10   
    75. A(C  22,C  21,O  24)          115.38 -0.000117    0.00    115.38   
    76. A(C  20,C  21,O  24)          125.27 -0.000043    0.02    125.29   
    77. A(C  20,C  21,C  22)          119.34  0.000155   -0.01    119.33   
    78. A(C  21,C  22,C  23)          120.26 -0.000252    0.03    120.29   
    79. A(H   6,C  22,C  23)          121.30  0.000062   -0.00    121.29   
    80. A(H   6,C  22,C  21)          118.43  0.000184   -0.02    118.41   
    81. A(C  18,C  23,C  22)          120.77  0.000130   -0.02    120.75   
    82. A(H   9,C  23,C  22)          119.22  0.000096   -0.01    119.21   
    83. A(H   9,C  23,C  18)          120.01 -0.000227    0.04    120.04   
    84. A(C  21,O  24,C  25)          119.47 -0.001496    0.22    119.69   
    85. A(H   0,C  25,H   4)          108.56 -0.000207   -0.01    108.55   
    86. A(O  24,C  25,C  26)          113.72 -0.001980    0.34    114.06   
    87. A(H   4,C  25,C  26)          109.51 -0.000147    0.08    109.58   
    88. A(H   0,C  25,C  26)          109.94  0.000588   -0.11    109.83   
    89. A(H   4,C  25,O  24)          110.81  0.001021   -0.12    110.70   
    90. A(H   0,C  25,O  24)          104.08  0.000831   -0.21    103.88   
    91. A(C  27,C  26,C  31)          117.76  0.000173   -0.03    117.73   
    92. A(C  25,C  26,C  31)          121.38 -0.000335    0.09    121.47   
    93. A(C  25,C  26,C  27)          120.75  0.000154   -0.05    120.71   
    94. A(C  26,C  27,C  28)          121.10  0.000049   -0.00    121.10   
    95. A(H   1,C  27,C  28)          119.85 -0.000235    0.04    119.89   
    96. A(H   1,C  27,C  26)          119.05  0.000185   -0.03    119.01   
    97. A(C  27,C  28,C  29)          120.31 -0.000162    0.02    120.33   
    98. A(H  12,C  28,C  29)          120.02  0.000085   -0.01    120.01   
    99. A(H  12,C  28,C  27)          119.65  0.000077   -0.01    119.64   
   100. A(C  28,C  29,C  30)          119.59 -0.000056    0.01    119.60   
   101. A(H   8,C  29,C  30)          119.96  0.000334   -0.05    119.91   
   102. A(H   8,C  29,C  28)          120.45 -0.000278    0.04    120.50   
   103. A(C  29,C  30,C  31)          119.71  0.000452   -0.06    119.65   
   104. A(H  10,C  30,C  31)          119.11 -0.000146    0.01    119.13   
   105. A(H  10,C  30,C  29)          121.17 -0.000304    0.04    121.21   
   106. A(C  30,C  31,N  32)          117.11 -0.000050   -0.01    117.09   
   107. A(C  26,C  31,N  32)          121.43  0.000505   -0.04    121.39   
   108. A(C  26,C  31,C  30)          121.45 -0.000457    0.06    121.51   
   109. A(O  33,N  32,O  34)          125.52  0.005591   -0.62    124.90   
   110. A(C  31,N  32,O  34)          116.80 -0.002377    0.32    117.12   
   111. A(C  31,N  32,O  33)          117.59 -0.003278    0.46    118.05   
   112. A(N  36,C  35,H  38)          110.45  0.000186   -0.03    110.42   
   113. A(H  39,C  35,H  40)          110.48  0.000216   -0.04    110.45   
   114. A(H  38,C  35,H  40)          109.13  0.000073    0.03    109.16   
   115. A(N  36,C  35,H  40)          107.80 -0.000924    0.18    107.98   
   116. A(H  38,C  35,H  39)          108.94 -0.000210    0.00    108.94   
   117. A(N  36,C  35,H  39)          110.02  0.000656   -0.14    109.88   
   118. A(C  35,N  36,H  37)          117.00  0.000401   -0.08    116.92   
   119. A(C  15,N  36,H  37)          119.61  0.001005   -0.17    119.44   
   120. A(C  15,N  36,C  35)          122.40 -0.001419    0.23    122.63   
   121. A(O  42,C  41,C  43)          122.92  0.000451   -0.06    122.86   
   122. A(N  13,C  41,C  43)          113.46 -0.000762    0.10    113.57   
   123. A(N  13,C  41,O  42)          123.61  0.000311   -0.04    123.57   
   124. A(H  45,C  43,H  46)          109.56 -0.000579    0.11    109.68   
   125. A(H  44,C  43,H  46)          107.34 -0.000116   -0.00    107.34   
   126. A(C  41,C  43,H  46)          108.93  0.000305   -0.06    108.86   
   127. A(H  44,C  43,H  45)          109.61 -0.000565    0.12    109.73   
   128. A(C  41,C  43,H  45)          112.44  0.000611   -0.10    112.34   
   129. A(C  41,C  43,H  44)          108.82  0.000321   -0.06    108.76   
   130. D(C  16,C  14,N  13,C  41)      1.69  0.000103   -0.22      1.47   
   131. D(C  15,C  14,N  13,C  41)    178.28 -0.000095    0.19    178.47   
   132. D(C  16,C  14,N  13,H  11)   -177.70  0.000007   -0.08   -177.78   
   133. D(C  15,C  14,N  13,H  11)     -1.11 -0.000190    0.34     -0.77   
   134. D(N  36,C  15,C  14,N  13)    178.02  0.000520   -0.84    177.17   
   135. D(O  17,C  15,C  14,C  16)    176.06 -0.000145   -0.05    176.00   
   136. D(N  36,C  15,C  14,C  16)     -5.47  0.000156   -0.39     -5.86   
   137. D(O  17,C  15,C  14,N  13)     -0.46  0.000219   -0.51     -0.97   
   138. D(H   7,C  16,C  14,C  15)     66.35  0.000346   -0.91     65.44   
   139. D(C  18,C  16,C  14,N  13)    121.28  0.000379   -0.34    120.94   
   140. D(H   3,C  16,C  14,C  15)   -175.57  0.000522   -0.94   -176.51   
   141. D(H   3,C  16,C  14,N  13)      0.53  0.000199   -0.43      0.11   
   142. D(H   7,C  16,C  14,N  13)   -117.55  0.000023   -0.39   -117.95   
   143. D(C  19,C  18,C  16,H   3)     66.69  0.000143   -1.26     65.43   
   144. D(C  19,C  18,C  16,H   7)   -174.45  0.000458   -1.34   -175.79   
   145. D(C  19,C  18,C  16,C  14)    -52.90  0.000543   -1.45    -54.36   
   146. D(C  23,C  18,C  16,H   7)      3.20  0.000210   -1.02      2.18   
   147. D(C  23,C  18,C  16,H   3)   -115.66 -0.000105   -0.94   -116.60   
   148. D(C  20,C  19,C  18,C  16)    175.57 -0.000443    0.53    176.11   
   149. D(H   5,C  19,C  18,C  23)    178.37  0.000069   -0.14    178.22   
   150. D(C  20,C  19,C  18,C  23)     -2.15 -0.000209    0.23     -1.93   
   151. D(H   5,C  19,C  18,C  16)     -3.91 -0.000165    0.16     -3.74   
   152. D(C  21,C  20,C  19,C  18)     -0.35  0.000118   -0.23     -0.58   
   153. D(C  21,C  20,C  19,H   5)    179.13 -0.000161    0.14    179.27   
   154. D(H   2,C  20,C  19,C  18)   -179.70  0.000235   -0.28   -179.98   
   155. D(H   2,C  20,C  19,H   5)     -0.22 -0.000043    0.09     -0.13   
   156. D(O  24,C  21,C  20,C  19)   -176.17  0.000463   -0.54   -176.72   
   157. D(O  24,C  21,C  20,H   2)      3.16  0.000341   -0.49      2.67   
   158. D(C  22,C  21,C  20,C  19)      2.77  0.000067    0.04      2.81   
   159. D(C  22,C  21,C  20,H   2)   -177.89 -0.000055    0.09   -177.80   
   160. D(H   6,C  22,C  21,C  20)    178.79  0.000088   -0.16    178.63   
   161. D(C  23,C  22,C  21,O  24)    176.36 -0.000495    0.67    177.03   
   162. D(C  23,C  22,C  21,C  20)     -2.68 -0.000138    0.14     -2.54   
   163. D(H   6,C  22,C  21,O  24)     -2.16 -0.000270    0.37     -1.80   
   164. D(C  18,C  23,C  22,C  21)      0.15  0.000043   -0.14      0.01   
   165. D(C  18,C  23,C  22,H   6)    178.64 -0.000187    0.17    178.81   
   166. D(H   9,C  23,C  22,C  21)   -179.36  0.000233   -0.28   -179.64   
   167. D(H   9,C  23,C  22,H   6)     -0.87  0.000003    0.02     -0.85   
   168. D(C  22,C  23,C  18,C  19)      2.25  0.000136   -0.04      2.20   
   169. D(C  22,C  23,C  18,C  16)   -175.43  0.000395   -0.36   -175.79   
   170. D(H   9,C  23,C  18,C  19)   -178.25 -0.000054    0.10   -178.15   
   171. D(H   9,C  23,C  18,C  16)      4.07  0.000205   -0.21      3.86   
   172. D(C  25,O  24,C  21,C  22)   -167.95  0.000837   -1.71   -169.66   
   173. D(C  25,O  24,C  21,C  20)     11.03  0.000457   -1.14      9.89   
   174. D(C  26,C  25,O  24,C  21)     54.12 -0.000851    0.88     55.00   
   175. D(H   4,C  25,O  24,C  21)    -69.74  0.000033    0.61    -69.13   
   176. D(H   0,C  25,O  24,C  21)    173.74 -0.000662    0.79    174.53   
   177. D(C  31,C  26,C  25,H   4)    159.43 -0.000020   -0.70    158.73   
   178. D(C  31,C  26,C  25,H   0)    -81.37 -0.000006   -0.73    -82.11   
   179. D(C  27,C  26,C  25,O  24)   -141.19  0.000336   -1.17   -142.37   
   180. D(C  27,C  26,C  25,H   4)    -16.63  0.000114   -1.02    -17.64   
   181. D(C  27,C  26,C  25,H   0)    102.57  0.000128   -1.05    101.52   
   182. D(C  28,C  27,C  26,C  31)     -0.66 -0.000093    0.21     -0.45   
   183. D(C  28,C  27,C  26,C  25)    175.54 -0.000241    0.51    176.06   
   184. D(H   1,C  27,C  26,C  31)    179.94 -0.000004    0.01    179.96   
   185. D(H   1,C  27,C  26,C  25)     -3.86 -0.000152    0.32     -3.54   
   186. D(C  29,C  28,C  27,C  26)     -1.77  0.000032   -0.09     -1.86   
   187. D(C  29,C  28,C  27,H   1)    177.62 -0.000055    0.11    177.73   
   188. D(H  12,C  28,C  27,C  26)    179.58  0.000065   -0.14    179.44   
   189. D(H  12,C  28,C  27,H   1)     -1.03 -0.000022    0.06     -0.97   
   190. D(C  30,C  29,C  28,H  12)   -179.44  0.000019   -0.05   -179.49   
   191. D(H   8,C  29,C  28,C  27)   -178.14  0.000055   -0.08   -178.22   
   192. D(H   8,C  29,C  28,H  12)      0.51  0.000022   -0.03      0.48   
   193. D(C  30,C  29,C  28,C  27)      1.92  0.000052   -0.11      1.81   
   194. D(C  31,C  30,C  29,C  28)      0.37 -0.000068    0.17      0.54   
   195. D(C  31,C  30,C  29,H   8)   -179.58 -0.000071    0.15   -179.43   
   196. D(H  10,C  30,C  29,C  28)    179.50  0.000025    0.01    179.51   
   197. D(H  10,C  30,C  29,H   8)     -0.45  0.000022   -0.01     -0.46   
   198. D(N  32,C  31,C  30,C  29)    175.79 -0.000109    0.37    176.16   
   199. D(N  32,C  31,C  30,H  10)     -3.36 -0.000199    0.52     -2.83   
   200. D(C  26,C  31,C  30,C  29)     -2.87  0.000018   -0.05     -2.92   
   201. D(C  26,C  31,C  30,H  10)    177.98 -0.000072    0.11    178.09   
   202. D(N  32,C  31,C  26,C  27)   -175.62  0.000199   -0.57   -176.19   
   203. D(N  32,C  31,C  26,C  25)      8.21  0.000328   -0.88      7.33   
   204. D(C  30,C  31,C  26,C  27)      2.98  0.000058   -0.14      2.84   
   205. D(C  30,C  31,C  26,C  25)   -173.19  0.000187   -0.44   -173.63   
   206. D(O  34,N  32,C  31,C  30)     48.79 -0.000039    0.07     48.85   
   207. D(O  34,N  32,C  31,C  26)   -132.55 -0.000180    0.48   -132.07   
   208. D(O  33,N  32,C  31,C  30)   -127.81  0.000878   -2.81   -130.62   
   209. D(O  33,N  32,C  31,C  26)     50.85  0.000737   -2.40     48.45   
   210. D(H  37,N  36,C  35,H  39)     44.05  0.000160   -0.21     43.85   
   211. D(H  37,N  36,C  35,H  38)    -76.24 -0.000121   -0.10    -76.34   
   212. D(C  15,N  36,C  35,H  40)     -3.90  0.000194   -0.13     -4.02   
   213. D(C  15,N  36,C  35,H  39)   -124.44  0.000111   -0.11   -124.55   
   214. D(C  15,N  36,C  35,H  38)    115.26 -0.000170   -0.00    115.25   
   215. D(H  37,N  36,C  15,O  17)   -173.48  0.000406   -0.65   -174.13   
   216. D(H  37,N  36,C  15,C  14)      8.10  0.000101   -0.31      7.79   
   217. D(C  35,N  36,C  15,O  17)     -5.27  0.000380   -0.74     -6.01   
   218. D(C  35,N  36,C  15,C  14)    176.31  0.000075   -0.40    175.91   
   219. D(C  43,C  41,N  13,C  14)   -179.96 -0.000119    0.19   -179.77   
   220. D(C  43,C  41,N  13,H  11)     -0.63 -0.000022    0.03     -0.60   
   221. D(O  42,C  41,N  13,C  14)     -0.12 -0.000082    0.17      0.05   
   222. D(O  42,C  41,N  13,H  11)    179.21  0.000014    0.01    179.22   
   223. D(H  46,C  43,C  41,N  13)    119.55 -0.000099   -0.05    119.50   
   224. D(H  45,C  43,C  41,O  42)    178.06 -0.000016   -0.06    178.00   
   225. D(H  45,C  43,C  41,N  13)     -2.10  0.000020   -0.08     -2.17   
   226. D(H  44,C  43,C  41,O  42)     56.43  0.000075   -0.10     56.34   
   227. D(H  44,C  43,C  41,N  13)   -123.72  0.000111   -0.12   -123.84   
    ----------------------------------------------------------------------------

Geometry step timings:
Preparation and reading OPT file:      0.000 s ( 0.148 %)
Internal coordinates            :      0.000 s ( 0.221 %)
B/P matrices and projection     :      0.005 s (39.849 %)
Hessian update/contruction      :      0.002 s (18.367 %)
Making the step                 :      0.004 s (31.855 %)
Converting the step to Cartesian:      0.001 s ( 4.190 %)
Storing new data                :      0.000 s ( 0.344 %)
Checking convergence            :      0.000 s ( 0.353 %)
Final printing                  :      0.001 s ( 4.649 %)
Total time                      :      0.012 s

Time for energy+gradient        :      0.133 s
Time for complete geometry iter :      0.146 s

         *************************************************************
         *                GEOMETRY OPTIMIZATION CYCLE   2            *
         *************************************************************
---------------------------------
CARTESIAN COORDINATES (ANGSTROEM)
---------------------------------
  H    -0.433981   -2.804158    3.304756
  H     0.175294    0.147040    4.510746
  H     0.643097    0.321003    1.614462
  H     1.178546    1.796152   -3.029440
  H     0.849796   -1.596748    3.054327
  H     0.778291    1.855888   -0.269248
  H    -0.590719   -2.805948   -1.021287
  H    -0.178087    0.946718   -3.780067
  H    -3.487503    2.222492    3.790601
  H    -0.426745   -1.254040   -2.931191
  H    -4.149828    0.464388    2.175267
  H    -1.051244    4.479006   -2.185111
  H    -1.334866    2.022530    4.990490
  N    -0.268707    3.875740   -2.465834
  C    -0.709955    2.586878   -2.530166
  C    -2.114874    2.485716   -2.168869
  C     0.165232    1.428136   -2.860094
  O    -2.741662    3.510565   -1.837339
  C     0.154292    0.426638   -1.729487
  C     0.468806    0.836194   -0.441484
  C     0.390939   -0.035378    0.629488
  C    -0.021204   -1.346313    0.421868
  C    -0.293608   -1.779476   -0.874944
  C    -0.206024   -0.901199   -1.934416
  O    -0.200489   -2.283708    1.402939
  C    -0.165762   -1.891719    2.761493
  C    -1.133721   -0.785425    3.108298
  C    -0.780577    0.207885    4.013516
  C    -1.628698    1.269671    4.276851
  C    -2.838296    1.382036    3.608620
  C    -3.210982    0.407076    2.703916
  C    -2.375119   -0.680640    2.482026
  N    -2.855930   -1.706133    1.591825
  O    -2.793878   -2.860643    1.964531
  O    -3.305748   -1.343346    0.518806
  C    -4.053572    1.024638   -1.834257
  N    -2.693723    1.267774   -2.247644
  H    -2.122503    0.459478   -2.433872
  H    -4.665821    0.735653   -2.690129
  H    -4.078597    0.223868   -1.094686
  H    -4.445838    1.947176   -1.409448
  C     0.961734    4.430556   -2.687734
  O     1.948062    3.782225   -3.010802
  C     0.993217    5.923852   -2.492440
  H     1.359016    6.388396   -3.405316
  H     0.018831    6.327229   -2.241695
  H     1.702090    6.160297   -1.701826

----------------------------
CARTESIAN COORDINATES (A.U.)
----------------------------
  NO LB    ZA    FRAG    MASS        X           Y           Z
   0 H   1.0000    0     1.008   -0.820105   -5.299090    6.245083
   1 H   1.0000    0     1.008    0.331257    0.277866    8.524074
   2 H   1.0000    0     1.008    1.215277    0.606608    3.050891
   3 H   1.0000    0     1.008    2.227130    3.394236   -5.724812
   4 H   1.0000    0     1.008    1.605882   -3.017417    5.771842
   5 H   1.0000    0     1.008    1.470757    3.507119   -0.508806
   6 H   1.0000    0     1.008   -1.116298   -5.302474   -1.929954
   7 H   1.0000    0     1.008   -0.336535    1.789038   -7.143292
   8 H   1.0000    0     1.008   -6.590426    4.199901    7.163198
   9 H   1.0000    0     1.008   -0.806432   -2.369792   -5.539149
  10 H   1.0000    0     1.008   -7.842037    0.877566    4.110659
  11 H   1.0000    0     1.008   -1.986564    8.464095   -4.129261
[...]
  27 C   6.0000    0    12.011   -1.359049    0.280293    7.691707
  28 C   6.0000    0    12.011   -2.903690    2.310482    8.267138
  29 C   6.0000    0    12.011   -5.179695    2.638141    7.007301
  30 C   6.0000    0    12.011   -5.930293    0.880892    5.234204
  31 C   6.0000    0    12.011   -4.414786   -1.215025    4.736483
  32 N   7.0000    0    14.007   -5.405441   -3.043789    3.021557
  33 O   8.0000    0    15.999   -5.144893   -5.285339    3.507288
  34 O   8.0000    0    15.999   -6.564987   -2.264956    1.173158
  35 C   6.0000    0    12.011   -7.743294    1.929562   -3.658281
  36 N   7.0000    0    14.007   -5.163576    2.394861   -4.405639
  37 H   1.0000    0     1.008   -4.065602    0.864182   -4.684824
  38 H   1.0000    0     1.008   -8.810691    1.152771   -5.239581
  39 H   1.0000    0     1.008   -7.797365    0.594038   -2.088038
  40 H   1.0000    0     1.008   -8.573943    3.721916   -3.086220
  41 C   6.0000    0    12.011    1.800962    8.338368   -5.041979
  42 O   8.0000    0    15.999    3.679341    7.097115   -5.587348
  43 C   6.0000    0    12.011    1.827005   11.151643   -4.661066
  44 H   1.0000    0     1.008    3.731666   11.856307   -4.952711
  45 H   1.0000    0     1.008    0.550663   12.053203   -5.994502
  46 H   1.0000    0     1.008    1.210372   11.610514   -2.755815

      -----------------------------------------------------------      
     |                   =====================                   |     
     |                           x T B                           |     
     |                   =====================                   |     
     |                         S. Grimme                         |     
     |          Mulliken Center for Theoretical Chemistry        |     
     |                    University of Bonn                     |     
      -----------------------------------------------------------      

   * xtb version 6.7.1 (edcfbbe) compiled by 'albert@albert-system' on 2024-07-22

   xtb is free software: you can redistribute it and/or modify it under
   the terms of the GNU Lesser General Public License as published by
   the Free Software Foundation, either version 3 of the License, or
   (at your option) any later version.
   
   xtb is distributed in the hope that it will be useful,
   but WITHOUT ANY WARRANTY; without even the implied warranty of
   MERCHANTABILITY or FITNESS FOR A PARTICULAR PURPOSE.  See the
   GNU Lesser General Public License for more details.
   
   Cite this work as:
   * C. Bannwarth, E. Caldeweyher, S. Ehlert, A. Hansen, P. Pracht,
     J. Seibert, S. Spicher, S. Grimme, WIREs Comput. Mol. Sci., 2020, 11,
     e01493. DOI: 10.1002/wcms.1493
   
   for GFN2-xTB:
   * C. Bannwarth, S. Ehlert and S. Grimme., J. Chem. Theory Comput., 2019,
     15, 1652-1671. DOI: 10.1021/acs.jctc.8b01176
   for GFN1-xTB:
   * S. Grimme, C. Bannwarth, P. Shushkov, J. Chem. Theory Comput., 2017,
     13, 1989-2009. DOI: 10.1021/acs.jctc.7b00118
   for GFN0-xTB:
   * P. Pracht, E. Caldeweyher, S. Ehlert, S. Grimme, ChemRxiv, 2019, preprint.
     DOI: 10.26434/chemrxiv.8326202.v1
   for GFN-FF:
   * S. Spicher and S. Grimme, Angew. Chem. Int. Ed., 2020, 59, 15665-15673.
     DOI: 10.1002/anie.202004239
   
   for ALPB and GBSA implicit solvation:
   * S. Ehlert, M. Stahn, S. Spicher, S. Grimme, J. Chem. Theory Comput.,
     2021, 17, 4250-4261. DOI: 10.1021/acs.jctc.1c00471
   
   for ddCOSMO and CPCM-X implicit solvation:
   * M. Stahn, S. Ehlert, S. Grimme, J. Phys. Chem. A,
     2023, XX, XXXX-XXXX. DOI: 10.1021/acs.jpca.3c04382
   
   for DFT-D4:
   * E. Caldeweyher, C. Bannwarth and S. Grimme, J. Chem. Phys., 2017,
     147, 034112. DOI: 10.1063/1.4993215
   * E. Caldeweyher, S. Ehlert, A. Hansen, H. Neugebauer, S. Spicher,
     C. Bannwarth and S. Grimme, J. Chem. Phys., 2019, 150, 154122.
     DOI: 10.1063/1.5090222
   * E. Caldeweyher, J.-M. Mewes, S. Ehlert and S. Grimme, Phys. Chem. Chem. Phys.
     2020, 22, 8499-8512. DOI: 10.1039/D0CP00502A
   
   for sTDA-xTB:
   * S. Grimme and C. Bannwarth, J. Chem. Phys., 2016, 145, 054103.
     DOI: 10.1063/1.4959605
   
   in the mass-spec context:
   * V. Asgeirsson, C. Bauer and S. Grimme, Chem. Sci., 2017, 8, 4879.
     DOI: 10.1039/c7sc00601b
   * J. Koopman and S. Grimme, ACS Omega 2019, 4, 12, 15120-15133.
     DOI: 10.1021/acsomega.9b02011
   
   for metadynamics refer to:
   * S. Grimme, J. Chem. Theory Comput., 2019, 155, 2847-2862
     DOI: 10.1021/acs.jctc.9b00143
   
   for SPH calculations refer to:
   * S. Spicher and S. Grimme, J. Chem. Theory Comput., 2021, 17, 1701-1714
     DOI: 10.1021/acs.jctc.0c01306
   
   for ONIOM refer to:
   * C. Plett, A. Katbashev, S. Ehlert, S. Grimme, M. Bursch,
     Phys. Chem. Chem. Phys., 2023, 25, 17860-17868. DOI: 10.1039/D3CP02178E
   
   for DIPRO refer to:
   * J. Kohn, N. Gildemeister, S. Grimme, D. Fazzi, A. Hansen,
     J. Chem. Phys., 2023, just accepted.
   
   for PTB refer to:
   * S. Grimme, M. Mueller, A. Hansen, J. Chem. Phys., 2023, 158, 124111.
     DOI: 10.1063/5.0137838
   
   with help from (in alphabetical order)
   P. Atkinson, C. Bannwarth, F. Bohle, G. Brandenburg, E. Caldeweyher
   M. Checinski, S. Dohm, S. Ehlert, S. Ehrlich, I. Gerasimov, C. Hölzer
   A. Katbashev, J. Kohn, J. Koopman, C. Lavigne, S. Lehtola, F. März, M. Müller,
   F. Musil, H. Neugebauer, J. Pisarek, C. Plett, P. Pracht, F. Pultar,
   J. Seibert, P. Shushkov, S. Spicher, M. Stahn, M. Steiner, T. Strunk,
   J. Stückrath, T. Rose, and J. Unsleber
   
 * started run on 2025/07/16 at 15:48:08.333     
   ID    Z sym.   atoms
    1    1 H      1-13, 38-41, 45-47
    2    7 N      14, 33, 37
    3    6 C      15-17, 19-24, 26-32, 36, 42, 44
    4    8 O      18, 25, 34, 35, 43

           -------------------------------------------------
          |                Calculation Setup                |
           -------------------------------------------------

          program call               : /home/esp/bin/orca_6_1_0/otool_xtb /home/esp/scriptDevelopment/drFrankenstein/11_PCY_CHARMM/04_torsion_scanning/torsion_NH1-CT1-CG321-CG2R61/scans_PCY_conformer_18/PCY_conformer_18_opt/orca_opt_XTB.xyz --grad -c 0 -u 0 -P 1 --namespace /home/esp/scriptDevelopment/drFrankenstein/11_PCY_CHARMM/04_torsion_scanning/torsion_NH1-CT1-CG321-CG2R61/scans_PCY_conformer_18/PCY_conformer_18_opt/orca_opt --input /home/esp/scriptDevelopment/drFrankenstein/11_PCY_CHARMM/04_torsion_scanning/torsion_NH1-CT1-CG321-CG2R61/scans_PCY_conformer_18/PCY_conformer_18_opt/orca_opt_XTB.input.tmp --alpb WATER --acc 0.200000
          calculation namespace      : /home/esp/scriptDevelopment/drFrankenstein/11_PCY_CHARMM/04_torsion_scanning/torsion_NH1-CT1-CG321-CG2R61/scans_PCY_conformer_18/PCY_conformer_18_opt/orca_opt
          coordinate file            : /home/esp/scriptDevelopment/drFrankenstein/11_PCY_CHARMM/04_torsion_scanning/torsion_NH1-CT1-CG321-CG2R61/scans_PCY_conformer_18/PCY_conformer_18_opt/orca_opt_XTB.xyz
          omp threads                :                     1


           -------------------------------------------------
          |                 G F N 2 - x T B                 |
           -------------------------------------------------

        Reference                      10.1021/acs.jctc.8b01176
      * Hamiltonian:
        H0-scaling (s, p, d)           1.850000    2.230000    2.230000
        zeta-weighting                 0.500000
      * Dispersion:
        s8                             2.700000
        a1                             0.520000
        a2                             5.000000
        s9                             5.000000
      * Repulsion:
        kExp                           1.500000    1.000000
        rExp                           1.000000
      * Coulomb:
        alpha                          2.000000
        third order                    shell-resolved
        anisotropic                    true
        a3                             3.000000
        a5                             4.000000
        cn-shift                       1.200000
        cn-exp                         4.000000
        max-rad                        5.000000

      * Solvation model:               ALPB
        Solvent                        WATER
        Parameter file                 internal GFN2-xTB/ALPB
        Dielectric constant                8.0200E+01
        Reference state                gsolv [1 M gas/solution]
        Free energy shift                  1.0808E-03 Eh       6.7819E-01 kcal/mol
        Temperature                        2.9815E+02 K
        Density                            1.0000E+00 kg/L
        Solvent mass                       1.8000E+01 g/mol
        Interaction kernel             P16
        Born radius scaling (c1)           1.4744E+00
        Born radii integrator          GBOBC
        Born offset                        0.0000E+00 a0       0.0000E+00 AA
        H-bond correction              true
        Ion screening                  false
        Surface tension                    1.0000E-05 Eh       1.5569E+01 dyn/cm
        Grid points                               230 per atom
q/qsh data taken from xtbrestart
CAMM data taken from xtbrestart

          ...................................................
          :                      SETUP                      :
          :.................................................:
          :  # basis functions                 128          :
          :  # atomic orbitals                 128          :
          :  # shells                           74          :
          :  # electrons                       141          :
          :  max. iterations                   250          :
          :  Hamiltonian                  GFN2-xTB          :
          :  restarted?                       true          :
          :  GBSA solvation                   true          :
          :  PC potential                    false          :
          :  electronic temp.          300.0000000     K    :
          :  accuracy                    0.2000000          :
          :  -> integral cutoff          0.3198970E+02      :
          :  -> integral neglect         0.2000000E-08      :
          :  -> SCF convergence          0.2000000E-06 Eh   :
          :  -> wf. convergence          0.2000000E-04 e    :
          :  Broyden damping             0.4000000          :
          :  net charge                          0          :
          :  unpaired electrons                  0          :
          ...................................................

 iter      E             dE          RMSdq      gap      omega  full diag
   1    -80.9467279 -0.809467E+02  0.965E-03    0.13       0.0  T
   2    -80.9467273  0.619342E-06  0.699E-03    0.14       2.1  T
   3    -80.9467205  0.675506E-05  0.125E-02    0.13       1.2  T
   4    -80.9467280 -0.747015E-05  0.967E-04    0.14      15.1  T
   5    -80.9467281 -0.410209E-07  0.219E-04    0.13      66.5  T
   6    -80.9467281 -0.622720E-09  0.113E-04    0.13     129.5  T
   7    -80.9467281 -0.805045E-10  0.535E-05    0.13     272.4  T

   *** convergence criteria satisfied after 7 iterations ***

         #    Occupation            Energy/Eh            Energy/eV
      -------------------------------------------------------------
         1        2.0000           -0.7755727             -21.1044
       ...           ...                  ...                  ...
        65        2.0000           -0.4247796             -11.5588
        66        2.0000           -0.4156896             -11.3115
        67        2.0000           -0.4141590             -11.2698
        68        2.0000           -0.4034720             -10.9790
        69        2.0000           -0.4004240             -10.8961
        70        2.0000           -0.3838565             -10.4453
        71        0.9313           -0.3292043              -8.9581 (HOMO)
        72        0.0687           -0.3242509              -8.8233 (LUMO)
        73                         -0.2525237              -6.8715
        74                         -0.2441686              -6.6442
        75                         -0.2327566              -6.3336
        76                         -0.2253121              -6.1311
       ...                                ...                  ...
       128                          0.6547328              17.8162
      -------------------------------------------------------------
                  HL-Gap            0.0049534 Eh            0.1348 eV
             Fermi-level           -0.3416290 Eh           -9.2962 eV

 SCC (total)                   0 d,  0 h,  0 min,  0.080 sec
 SCC setup                      ...        0 min,  0.002 sec (  2.419%)
 Dispersion                     ...        0 min,  0.000 sec (  0.620%)
 classical contributions        ...        0 min,  0.000 sec (  0.090%)
 integral evaluation            ...        0 min,  0.007 sec (  9.046%)
 iterations                     ...        0 min,  0.047 sec ( 58.917%)
 molecular gradient             ...        0 min,  0.022 sec ( 27.935%)
 printout                       ...        0 min,  0.001 sec (  0.928%)

         :::::::::::::::::::::::::::::::::::::::::::::::::::::
         ::                     SUMMARY                     ::
         :::::::::::::::::::::::::::::::::::::::::::::::::::::
         :: total energy             -79.900309788352 Eh    ::
         :: total w/o Gsasa/hb       -79.897775882188 Eh    ::
         :: gradient norm              0.000354557619 Eh/a0 ::
         :: HOMO-LUMO gap              0.134788305498 eV    ::
         ::.................................................::
         :: SCC energy               -80.944859905761 Eh    ::
         :: -> isotropic ES            0.187016344119 Eh    ::
         :: -> anisotropic ES          0.000867820334 Eh    ::
         :: -> anisotropic XC          0.021865047865 Eh    ::
         :: -> dispersion             -0.053497956397 Eh    ::
         :: -> Gsolv                  -0.034265358874 Eh    ::
         ::    -> Gelec               -0.031731452710 Eh    ::
         ::    -> Gsasa                0.003097047426 Eh    ::
         ::    -> Ghb                 -0.006711713288 Eh    ::
         ::    -> Gshift               0.001080759698 Eh    ::
         :: repulsion energy           1.044550117409 Eh    ::
         :: add. restraining           0.000000000000 Eh    ::
         :: total charge               0.000000000000 e     ::
         :::::::::::::::::::::::::::::::::::::::::::::::::::::


Property printout bound to 'properties.out'

           -------------------------------------------------
          | TOTAL ENERGY              -79.900309788352 Eh   |
          | GRADIENT NORM               0.000354557619 Eh/α |
          | HOMO-LUMO GAP               0.134788305498 eV   |
           -------------------------------------------------

------------------------------------------------------------------------
 * finished run on 2025/07/16 at 15:48:08.448     
------------------------------------------------------------------------
 total:
 * wall-time:     0 d,  0 h,  0 min,  0.115 sec
 *  cpu-time:     0 d,  0 h,  0 min,  0.069 sec
 * ratio c/w:     0.603 speedup
 SCF:
 * wall-time:     0 d,  0 h,  0 min,  0.081 sec
 *  cpu-time:     0 d,  0 h,  0 min,  0.056 sec
 * ratio c/w:     0.687 speedup


-------------------------   --------------------
FINAL SINGLE POINT ENERGY       -79.900309788350
-------------------------   --------------------


-------------
DIPOLE MOMENT
-------------
                                X             Y             Z
Total Dipole Moment    :      0.54000       1.52600       1.75400
                        -----------------------------------------
Magnitude (a.u.)       :      2.38680
Magnitude (Debye)      :      6.06675

                                *** OPTIMIZATION RUN DONE ***


--------------------------------
SUGGESTED CITATIONS FOR THIS RUN
--------------------------------

Below you find a list of papers that are relevant to this ORCA run
We neither can nor want to force you to cite these papers, but we appreciate if you do
You receive ORCA, which is the product of decades of hard work by many enthusiastic individuals, for free
The only thing we kindly ask in return is that you cite our papers,
We deeply appreciate it, if you show your appreciation for ORCA by not just citing the generic ORCA reference.

Please note that relegating all ORCA citations to the supporting information does *not* help us.
SI sections are not indexed - citations you put there will not count into any citation statistics
But we need these citations in order to attract the funding resources that allow us to do what we are doing

Therefore, if you are a happy ORCA user, please consider citing a few of the papers listed below in the main body of your paper

In addition to the list printed below, the program has created the file /home/esp/scriptDevelopment/drFrankenstein/11_PCY_CHARMM/04_torsion_scanning/torsion_NH1-CT1-CG321-CG2R61/scans_PCY_conformer_18/PCY_conformer_18_opt/orca_opt.bibtex that contains the list in bibtex format
You can import this file easily into all common literature databanks and citation aid programs


List of essential papers. We consider these as the minimum necessary citations

  1. Bannwarth, C.; Ehlert, S.; Grimme, S.
     GFN2-xTB—An Accurate and Broadly Parametrized Self-Consistent Tight-Binding Quantum Chemical Method with Multipole Electrostatics and Density-Dependent Dispersion Contributions
     J. Chem. Theory Comput. 2019 15(3), 1652-1671
     doi.org/10.1021/acs.jctc.8b01176
  2. Neese, F.
     Software update: the ORCA program system, version 6.0
     WIRES Comput. Molec. Sci. 2025 15(1), e70019
     doi.org/10.1002/wcms.7019

List of papers to cite with high priority. The work reported in these papers was absolutely
necessary for this run to complete.
Our perspective: the developers of density functionals and basis sets usually get cited in chemistry papers
Good! But without the algorithms to do something with them, the functionals or basis sets would not do anything.
Hence, in our opinion, the algorithm design and method developments papers are equally worthy of getting cited

  1. Bannwarth, C.; Caldeweyher, E.; Ehlert, S.; Hansen, A.; Pracht, P.; Seibert, J.; Spicher, S.; Grimme, S.
     Extended tight-binding quantum chemistry methods
     WIRES Comput. Molec. Sci. 2020 11(2), e1493
     doi.org/10.1002/wcms.1493

List of suggested additional citations. These are papers that are important in the 'surrounding' of 
of this run, or papers that preceded the highly important papers. If you like your results we are grateful for a citation.

  1. Neese, F.
     The ORCA program system
     WIRES Comput. Molec. Sci. 2012 2(1), 73-78
     doi.org/10.1002/wcms.81
  2. Neese, F.
     Software update: the ORCA program system, version 4.0
     WIRES Comput. Molec. Sci. 2018 8(1), 1-6
     doi.org/10.1002/wcms.1327
  3. Neese, F.; Wennmohs, F.; Becker, U.; Riplinger, C.
     The ORCA quantum chemistry program package
     J. Chem. Phys. 2020 152(22), 224108
     doi.org/10.1063/5.0004608
  4. Neese, F.
     Software update: The ORCA program system—Version 5.0
     WIRES Comput. Molec. Sci. 2022 12(1), e1606
     doi.org/10.1002/wcms.1606

List of optional additional citations

  1. Neese, F.
     Approximate second-order SCF convergence for spin unrestricted wavefunctions
     Chem. Phys. Lett. 2000 325(1-3), 93-98
     doi.org/10.1016/s0009-2614(00)00662-x

Timings for individual modules:

Sum of individual times          ...        4.201 sec (=   0.070 min)
Geometry relaxation              ...        0.452 sec (=   0.008 min)  10.8 %
XTB module                       ...        3.750 sec (=   0.062 min)  89.2 %
                             ****ORCA TERMINATED NORMALLY****
TOTAL RUN TIME: 0 days 0 hours 0 minutes 4 seconds 424 msec
