47
Coordinates from ORCA-job /home/esp/scriptDevelopment/drFrankenstein/11_PCY_CHARMM/04_torsion_scanning/torsion_NH1-CT1-CG321-CG2R61/scans_PCY_conformer_4/PCY_conformer_4_backwards/orca_scan Relaxed Surface Scan Step 1 E -79.901340137000
  H       0.930241     -2.062241      0.718270
  H      -1.188924     -0.711948      3.259631
  H       0.698760      2.136185      1.912182
  H      -2.974315      2.382607     -2.183513
  H       1.618395     -2.096940      2.339181
  H      -0.657009      3.637848      0.493879
  H      -1.079950     -1.248800      0.007728
  H      -3.180656      3.474074     -0.808275
  H      -3.724253     -4.122967      3.683088
  H      -2.394072      0.229070     -1.399511
  H      -2.107908     -5.458070      2.361313
  H      -1.075994      5.854111     -2.472131
  H      -3.232313     -1.735977      4.140406
  N      -1.764891      5.335223     -1.915512
  C      -1.601317      3.999958     -2.096615
  C      -0.502235      3.700509     -3.003076
  C      -2.439674      2.967792     -1.430120
  O       0.145724      4.635496     -3.517356
  C      -1.611302      2.041901     -0.568308
  C      -0.737537      2.567698      0.379003
  C       0.018596      1.737628      1.176795
  C      -0.082880      0.350920      1.051261
  C      -0.961395     -0.182797      0.117408
  C      -1.710298      0.663436     -0.685004
  O       0.710043     -0.376077      1.895362
  C       0.743496     -1.779816      1.761665
  C      -0.482757     -2.473850      2.297913
  C      -1.395846     -1.750846      3.056501
  C      -2.549529     -2.329705      3.554338
  C      -2.826054     -3.666555      3.301341
  C      -1.934019     -4.412838      2.564430
  C      -0.762011     -3.832719      2.066746
  N       0.110291     -4.678832      1.340492
  O      -0.288746     -5.798063      1.019282
  O       1.240560     -4.284868      1.053113
  C       0.843453      1.980662     -4.111483
  N      -0.252125      2.404693     -3.275855
  H      -0.745122      1.691567     -2.761245
  H       0.478797      1.325844     -4.902280
  H       1.293150      2.868760     -4.551925
  H       1.593045      1.450596     -3.522213
  C      -2.642139      6.055133     -1.145333
  O      -3.499232      5.539753     -0.438786
  C      -2.435955      7.537658     -1.263828
  H      -3.151637      8.051080     -0.628975
  H      -1.426225      7.800880     -0.958679
  H      -2.577240      7.850807     -2.295346
>
47
Coordinates from ORCA-job /home/esp/scriptDevelopment/drFrankenstein/11_PCY_CHARMM/04_torsion_scanning/torsion_NH1-CT1-CG321-CG2R61/scans_PCY_conformer_4/PCY_conformer_4_backwards/orca_scan Relaxed Surface Scan Step 2 E -79.901223773040
  H       0.828811     -2.239964      0.566355
  H      -0.988838     -0.727693      3.250226
  H       0.968341      1.975101      1.716546
  H      -2.954467      2.433180     -2.114554
  H       1.632482     -2.306947      2.132204
  H      -0.394508      3.553295      0.390283
  H      -1.172344     -1.298504     -0.001034
  H      -3.096871      3.470498     -0.698450
  H      -3.721437     -3.946237      3.894843
  H      -2.493422      0.254003     -1.320694
  H      -2.311321     -5.397923      2.464097
  H      -1.194356      5.912502     -2.497083
  H      -3.026487     -1.599819      4.293209
  N      -1.866671      5.367093     -1.945308
  C      -1.578425      4.043351     -2.035477
  C      -0.426118      3.793807     -2.890653
  C      -2.378936      2.985295     -1.364147
  O       0.175914      4.757684     -3.407684
  C      -1.534493      2.016477     -0.572123
  C      -0.555595      2.490042      0.297959
  C       0.206715      1.617420      1.042604
  C       0.004629      0.239566      0.943237
  C      -0.977430     -0.241790      0.087106
  C      -1.731612      0.646094     -0.663373
  O       0.812156     -0.531876      1.732163
  C       0.740381     -1.935747      1.616569
  C      -0.486603     -2.538639      2.252038
  C      -1.284403     -1.749624      3.072267
  C      -2.434841     -2.242613      3.661663
  C      -2.824966     -3.556751      3.441599
  C      -2.048070     -4.367345      2.644653
  C      -0.879410     -3.874390      2.053952
  N      -0.128070     -4.782791      1.270447
  O      -0.633400     -5.867572      0.981137
  O       1.005820     -4.475171      0.902105
  C       1.073002      2.142186     -3.901582
  N      -0.080308      2.512211     -3.120040
  H      -0.554102      1.779689     -2.613781
  H       0.783364      1.450112     -4.691639
  H       1.484465      3.048173     -4.342997
  H       1.828407      1.671909     -3.270449
  C      -2.827467      6.049585     -1.244407
  O      -3.671266      5.500279     -0.547149
  C      -2.732694      7.536662     -1.427489
  H      -3.514013      8.019830     -0.848815
  H      -1.761388      7.893655     -1.094226
  H      -2.851167      7.789680     -2.478146
>
47
Coordinates from ORCA-job /home/esp/scriptDevelopment/drFrankenstein/11_PCY_CHARMM/04_torsion_scanning/torsion_NH1-CT1-CG321-CG2R61/scans_PCY_conformer_4/PCY_conformer_4_backwards/orca_scan Relaxed Surface Scan Step 3 E -79.900783300650
  H       0.745763     -2.353269      0.451220
  H      -0.841009     -0.769359      3.240230
  H       1.147390      1.844423      1.613676
  H      -2.968594      2.515471     -1.975889
  H       1.630375     -2.467709      1.969956
  H      -0.214613      3.495617      0.377500
  H      -1.235887     -1.311854     -0.001146
  H      -2.993355      3.527595     -0.541490
  H      -3.694470     -3.850146      4.019706
  H      -2.557219      0.311557     -1.232636
  H      -2.441758     -5.360083      2.505202
  H      -1.281557      5.938783     -2.555329
  H      -2.859274     -1.545381      4.391041
  N      -1.932917      5.388940     -1.982912
  C      -1.551522      4.085203     -1.963830
  C      -0.373802      3.856620     -2.791504
  C      -2.326973      3.033662     -1.254003
  O       0.192137      4.829922     -3.331644
  C      -1.476601      2.021467     -0.529665
  C      -0.429397      2.441581      0.288192
  C       0.333648      1.528323      0.981213
  C       0.062816      0.161926      0.884158
  C      -0.987723     -0.265987      0.082540
  C      -1.742569      0.662235     -0.616862
  O       0.877400     -0.652543      1.620413
  C       0.730570     -2.050505      1.505495
  C      -0.487908     -2.595526      2.206393
  C      -1.197666     -1.773565      3.073771
  C      -2.337292     -2.212224      3.723998
  C      -2.805724     -3.503030      3.519241
  C      -2.116606     -4.345693      2.676183
  C      -0.958710     -3.908036      2.023909
  N      -0.299134     -4.846705      1.195320
  O      -0.876227     -5.900567      0.924712
  O       0.829177     -4.595788      0.769961
  C       1.213774      2.245846     -3.730139
  N       0.032207      2.586383     -2.977858
  H      -0.426147      1.845775     -2.468578
  H       0.966826      1.525677     -4.509512
  H       1.597967      3.157488     -4.184247
  H       1.974127      1.819432     -3.074324
  C      -2.946779      6.054672     -1.343998
  O      -3.766684      5.501308     -0.621838
  C      -2.945123      7.528295     -1.631364
  H      -3.767446      7.998166     -1.100514
  H      -2.005710      7.970993     -1.309706
  H      -3.058788      7.698590     -2.699083
>
47
Coordinates from ORCA-job /home/esp/scriptDevelopment/drFrankenstein/11_PCY_CHARMM/04_torsion_scanning/torsion_NH1-CT1-CG321-CG2R61/scans_PCY_conformer_4/PCY_conformer_4_backwards/orca_scan Relaxed Surface Scan Step 4 E -79.899996048230
  H       0.691893     -2.383470      0.366954
  H      -0.770451     -0.835329      3.237907
  H       1.263664      1.763343      1.623304
  H      -3.029765      2.656020     -1.707346
  H       1.625014     -2.566491      1.849505
  H      -0.087985      3.488760      0.478855
  H      -1.279057     -1.272836      0.021873
  H      -2.831613      3.687391     -0.308741
  H      -3.665199     -3.871988      4.037074
  H      -2.592959      0.423257     -1.117423
  H      -2.490158     -5.374712      2.454685
  H      -1.353351      5.921816     -2.680690
  H      -2.769798     -1.593745      4.431964
  N      -1.972237      5.406675     -2.043567
  C      -1.530219      4.129834     -1.893321
  C      -0.361013      3.872387     -2.726313
  C      -2.274727      3.137304     -1.073554
  O       0.166426      4.822189     -3.342643
  C      -1.430149      2.079100     -0.416151
  C      -0.340112      2.444729      0.372742
  C       0.417777      1.490154      1.013467
  C       0.098620      0.135831      0.893107
  C      -0.993956     -0.237855      0.121161
  C      -1.744516      0.731671     -0.525172
  O       0.911669     -0.722478      1.579175
  C       0.721549     -2.111862      1.429421
  C      -0.486927     -2.645719      2.155784
  C      -1.152939     -1.828172      3.061111
  C      -2.282058     -2.256865      3.735932
  C      -2.783965     -3.532861      3.518164
  C      -2.138042     -4.371457      2.637733
  C      -0.990392     -3.944423      1.960557
  N      -0.375476     -4.879114      1.094535
  O      -0.976655     -5.921812      0.830826
  O       0.740033     -4.637550      0.630350
  C       1.251451      2.248857     -3.597189
  N       0.078876      2.605497     -2.838465
  H      -0.362269      1.882333     -2.290056
  H       1.003796      1.484965     -4.333608
  H       1.608969      3.142732     -4.105194
  H       2.031767      1.870345     -2.935557
  C      -2.996392      6.093705     -1.445032
  O      -3.766693      5.587228     -0.639002
  C      -3.074568      7.524817     -1.892104
  H      -3.906381      8.011964     -1.392514
  H      -2.151092      8.044104     -1.648241
  H      -3.221399      7.569710     -2.968345
>
47
Coordinates from ORCA-job /home/esp/scriptDevelopment/drFrankenstein/11_PCY_CHARMM/04_torsion_scanning/torsion_NH1-CT1-CG321-CG2R61/scans_PCY_conformer_4/PCY_conformer_4_backwards/orca_scan Relaxed Surface Scan Step 5 E -79.898970196830
  H       0.617798     -2.415903      0.272110
  H      -0.665129     -0.902767      3.245439
  H       1.380167      1.669782      1.637051
  H      -3.065197      2.814535     -1.404944
  H       1.603413     -2.675263      1.708473
  H       0.050193      3.475322      0.594414
  H      -1.313976     -1.227373      0.025876
  H      -2.609073      3.859085     -0.087008
  H      -3.629771     -3.858653      4.089268
  H      -2.606012      0.547069     -1.015601
  H      -2.581102     -5.353743      2.413999
  H      -1.443532      5.877185     -2.806012
  H      -2.636876     -1.625001      4.505911
  N      -2.023393      5.393824     -2.109888
  C      -1.508211      4.163377     -1.842803
  C      -0.345697      3.890248     -2.681071
  C      -2.194686      3.245634     -0.894230
  O       0.117301      4.810517     -3.388123
  C      -1.364849      2.139989     -0.303427
  C      -0.239257      2.444136      0.462727
  C       0.507103      1.444853      1.046159
  C       0.139546      0.106049      0.892135
  C      -0.990111     -0.206207      0.146650
  C      -1.728773      0.807870     -0.442923
  O       0.946467     -0.800116      1.520755
  C       0.700628     -2.176960      1.339496
  C      -0.495389     -2.689061      2.101350
  C      -1.091122     -1.875735      3.057919
  C      -2.204464     -2.284058      3.770550
  C      -2.760934     -3.534975      3.540420
  C      -2.185368     -4.369104      2.608502
  C      -1.054171     -3.962786      1.891834
  N      -0.514223     -4.891470      0.971624
  O      -1.163663     -5.905539      0.707797
  O       0.586341     -4.674398      0.460511
  C       1.332110      2.287993     -3.461950
  N       0.161795      2.644628     -2.699672
  H      -0.242192      1.940284     -2.100359
  H       1.101827      1.470639     -4.144824
  H       1.643172      3.161907     -4.031541
  H       2.138838      1.981706     -2.794936
  C      -3.075550      6.076802     -1.557423
  O      -3.806821      5.603402     -0.697265
  C      -3.235930      7.456614     -2.127301
  H      -4.087006      7.941741     -1.659109
  H      -2.338860      8.042714     -1.943662
  H      -3.396372      7.399188     -3.200934
>
47
Coordinates from ORCA-job /home/esp/scriptDevelopment/drFrankenstein/11_PCY_CHARMM/04_torsion_scanning/torsion_NH1-CT1-CG321-CG2R61/scans_PCY_conformer_4/PCY_conformer_4_backwards/orca_scan Relaxed Surface Scan Step 6 E -79.898043811330
  H       0.583165     -2.405163      0.210525
  H      -0.588132     -0.980000      3.275383
  H       1.510477      1.589268      1.737043
  H      -3.039614      3.036435     -0.972635
  H       1.578348     -2.761373      1.619318
  H       0.229884      3.483282      0.795978
  H      -1.309074     -1.140129      0.049185
  H      -2.242461      4.099459      0.149328
  H      -3.662084     -3.846890      4.031019
  H      -2.554737      0.722358     -0.891669
  H      -2.705442     -5.301373      2.267500
  H      -1.579926      5.758066     -2.965825
  H      -2.567961     -1.679832      4.536390
  N      -2.076563      5.344063     -2.167661
  C      -1.481869      4.177132     -1.797968
  C      -0.368576      3.860181     -2.685754
  C      -2.048390      3.392881     -0.665674
  O      -0.034719      4.698361     -3.551020
  C      -1.245758      2.238446     -0.135397
  C      -0.098249      2.469973      0.623923
  C       0.621721      1.420568      1.150955
  C       0.205245      0.103251      0.945385
  C      -0.946800     -0.137070      0.206837
  C      -1.659248      0.926467     -0.324500
  O       0.988998     -0.856792      1.520179
  C       0.689839     -2.214990      1.285517
  C      -0.513617     -2.714133      2.044277
  C      -1.058321     -1.924069      3.049506
  C      -2.176151     -2.319664      3.762292
  C      -2.789242     -3.533453      3.482558
  C      -2.265088     -4.344639      2.501371
  C      -1.129302     -3.951805      1.784376
  N      -0.644429     -4.856513      0.811365
  O      -1.342997     -5.826170      0.507726
  O       0.458487     -4.663998      0.294788
  C       1.368723      2.284422     -3.385022
  N       0.243683      2.668456     -2.569680
  H      -0.061968      2.026793     -1.853123
  H       1.142388      1.369574     -3.932399
  H       1.566777      3.090464     -4.089267
  H       2.247995      2.120542     -2.761285
  C      -3.136782      6.028568     -1.633569
  O      -3.779027      5.627567     -0.672059
  C      -3.423382      7.311769     -2.358987
  H      -4.274797      7.802877     -1.897819
  H      -2.557615      7.967618     -2.311929
  H      -3.644419      7.107195     -3.403521
>
47
Coordinates from ORCA-job /home/esp/scriptDevelopment/drFrankenstein/11_PCY_CHARMM/04_torsion_scanning/torsion_NH1-CT1-CG321-CG2R61/scans_PCY_conformer_4/PCY_conformer_4_backwards/orca_scan Relaxed Surface Scan Step 7 E -79.897650511830
  H       0.580416     -2.376732      0.177252
  H      -0.546606     -1.042771      3.304920
  H       1.640489      1.510209      1.898400
  H      -2.899604      3.302143     -0.499935
  H       1.543403     -2.832603      1.579381
  H       0.440883      3.492808      1.042003
  H      -1.253295     -1.029132      0.047089
  H      -1.762640      4.347931      0.296649
  H      -3.767194     -3.784937      3.894530
  H      -2.421060      0.923135     -0.810847
  H      -2.871004     -5.193528      2.062997
  H      -1.791111      5.539817     -3.121291
  H      -2.568639     -1.705757      4.518021
  N      -2.154128      5.237736     -2.208814
  C      -1.464013      4.151371     -1.765595
  C      -0.434069      3.769365     -2.724890
  C      -1.832606      3.550009     -0.452488
  O      -0.315221      4.440198     -3.773543
  C      -1.068079      2.350697      0.033023
  C       0.077536      2.502849      0.813771
  C       0.753712      1.402206      1.295309
  C       0.293772      0.112942      1.020190
  C      -0.857507     -0.048790      0.257987
  C      -1.525430      1.064179     -0.225287
  O       1.035494     -0.902166      1.554451
  C       0.682524     -2.235635      1.260167
  C      -0.549582     -2.713045      1.986350
  C      -1.061785     -1.949089      3.028200
  C      -2.203669     -2.323710      3.713636
  C      -2.875185     -3.488573      3.367822
  C      -2.384853     -4.273711      2.348637
  C      -1.224735     -3.902796      1.659533
  N      -0.777821     -4.779618      0.643814
  O      -1.526416     -5.688662      0.278072
  O       0.342404     -4.623553      0.152654
  C       1.401007      2.273991     -3.347946
  N       0.354301      2.712950     -2.459355
  H       0.221973      2.206822     -1.596231
  H       1.222743      1.244774     -3.659940
  H       1.399390      2.924659     -4.220648
  H       2.368667      2.334552     -2.849487
  C      -3.191779      5.938348     -1.652170
  O      -3.688908      5.654473     -0.570680
  C      -3.645729      7.083473     -2.511214
  H      -4.468613      7.595549     -2.021924
  H      -2.825933      7.780460     -2.666193
  H      -3.972510      6.715145     -3.480420
>
47
Coordinates from ORCA-job /home/esp/scriptDevelopment/drFrankenstein/11_PCY_CHARMM/04_torsion_scanning/torsion_NH1-CT1-CG321-CG2R61/scans_PCY_conformer_4/PCY_conformer_4_backwards/orca_scan Relaxed Surface Scan Step 8 E -79.898047986970
  H       0.583989     -2.300921      0.155047
  H      -0.575000     -1.075109      3.312069
  H       1.757083      1.454285      2.069826
  H      -2.643884      3.637895     -0.060366
  H       1.497617     -2.860514      1.552832
  H       0.666596      3.518981      1.268863
  H      -1.196564     -0.881446      0.052602
  H      -1.233396      4.584347      0.314203
  H      -3.891471     -3.736809      3.707214
  H      -2.260212      1.155151     -0.748943
  H      -2.996736     -5.090757      1.834269
  H      -2.023040      5.249930     -3.212362
  H      -2.644970     -1.725772      4.448794
  N      -2.236014      5.097147     -2.219321
  C      -1.452467      4.104039     -1.717355
  C      -0.524746      3.614504     -2.731270
  C      -1.574464      3.728119     -0.281141
  O      -0.638133      4.038459     -3.901802
  C      -0.867526      2.485421      0.182178
  C       0.264159      2.556866      0.991716
  C       0.880629      1.408590      1.444169
  C       0.373733      0.153358      1.106176
  C      -0.765537      0.071986      0.312583
  C      -1.373708      1.230552     -0.137908
  O       1.059534     -0.913909      1.613398
  C       0.666167     -2.217262      1.245591
  C      -0.598431     -2.684787      1.920487
  C      -1.111400     -1.951341      2.983653
  C      -2.280280     -2.319075      3.625948
  C      -2.978817     -3.445873      3.213919
  C      -2.489268     -4.200420      2.171559
  C      -1.302649     -3.836323      1.525246
  N      -0.860349     -4.680224      0.480070
  O      -1.627085     -5.549627      0.059706
  O       0.273340     -4.535394      0.017291
  C       1.393880      2.209872     -3.311168
  N       0.442093      2.751002     -2.373439
  H       0.496060      2.442383     -1.413881
  H       1.301021      1.124461     -3.358634
  H       1.184028      2.636115     -4.290557
  H       2.408756      2.469677     -3.010707
  C      -3.236943      5.836878     -1.645600
  O      -3.583182      5.706824     -0.479057
  C      -3.851292      6.821021     -2.598937
  H      -4.628022      7.380424     -2.086515
  H      -3.091901      7.507132     -2.965410
  H      -4.282211      6.298123     -3.449075
>
47
Coordinates from ORCA-job /home/esp/scriptDevelopment/drFrankenstein/11_PCY_CHARMM/04_torsion_scanning/torsion_NH1-CT1-CG321-CG2R61/scans_PCY_conformer_4/PCY_conformer_4_backwards/orca_scan Relaxed Surface Scan Step 9 E -79.898985532590
  H       0.544286     -2.295534      0.120826
  H      -0.586549     -1.065171      3.283664
  H       1.865218      1.366022      2.129644
  H      -2.365663      3.874428      0.179946
  H       1.422161     -2.920696      1.513653
  H       0.874102      3.494257      1.369270
  H      -1.157855     -0.790500      0.017935
  H      -0.824352      4.685252      0.263716
  H      -4.015331     -3.588791      3.619832
  H      -2.123098      1.310004     -0.744748
  H      -3.162610     -4.957118      1.737815
  H      -2.170247      5.044021     -3.201899
  H      -2.691427     -1.641021      4.395567
  N      -2.293909      4.968834     -2.185263
  C      -1.400864      4.082332     -1.668533
  C      -0.506558      3.577446     -2.705011
  C      -1.340262      3.836219     -0.202215
  O      -0.742218      3.866673     -3.897646
  C      -0.689264      2.554697      0.239222
  C       0.434157      2.557802      1.062309
  C       0.995119      1.373356      1.493521
  C       0.439841      0.149982      1.118150
  C      -0.690937      0.136970      0.308327
  C      -1.242837      1.331041     -0.120195
  O       1.073471     -0.957752      1.607100
  C       0.623159     -2.234538      1.213126
  C      -0.666052     -2.655484      1.871864
  C      -1.156614     -1.913785      2.939905
  C      -2.345260     -2.239442      3.568446
  C      -3.087160     -3.330807      3.137311
  C      -2.620965     -4.093013      2.089836
  C      -1.414738     -3.771681      1.457303
  N      -0.999375     -4.621801      0.405947
  O      -1.795661     -5.458354     -0.025299
  O       0.140812     -4.515298     -0.050603
  C       1.493661      2.293729     -3.290834
  N       0.567429      2.854887     -2.339455
  H       0.706740      2.638664     -1.363346
  H       1.485375      1.204897     -3.230068
  H       1.184352      2.603988     -4.287337
  H       2.502075      2.655959     -3.092688
  C      -3.324253      5.662929     -1.606190
  O      -3.580636      5.612771     -0.410223
  C      -4.091995      6.492888     -2.594223
  H      -4.890156      7.018235     -2.078767
  H      -3.429736      7.213869     -3.066884
  H      -4.516387      5.856612     -3.366848
>
47
Coordinates from ORCA-job /home/esp/scriptDevelopment/drFrankenstein/11_PCY_CHARMM/04_torsion_scanning/torsion_NH1-CT1-CG321-CG2R61/scans_PCY_conformer_4/PCY_conformer_4_backwards/orca_scan Relaxed Surface Scan Step 10 E -79.900020159240
  H       0.497981     -2.278680      0.097736
  H      -0.600352     -1.059102      3.276475
  H       1.950565      1.301587      2.152979
  H      -2.114773      4.063142      0.311936
  H       1.346803     -2.956694      1.484252
  H       1.048531      3.473973      1.408716
  H      -1.151459     -0.712716      0.015358
  H      -0.506706      4.740870      0.181707
  H      -4.120020     -3.461566      3.558991
  H      -2.029672      1.431548     -0.730107
  H      -3.310264     -4.828480      1.656974
  H      -2.278283      4.850054     -3.176340
  H      -2.729529     -1.576353      4.371502
  N      -2.338316      4.832618     -2.151432
  C      -1.338833      4.067731     -1.637401
  C      -0.460420      3.566905     -2.688734
  C      -1.143170      3.920107     -0.170506
  O      -0.774847      3.754723     -3.883102
  C      -0.549562      2.608128      0.268144
  C       0.571426      2.558911      1.092605
  C       1.082540      1.349410      1.515749
  C       0.479907      0.152856      1.127760
  C      -0.648589      0.192522      0.315900
  C      -1.150640      1.411525     -0.103481
  O       1.068292     -0.984205      1.606704
  C       0.574312     -2.237730      1.191264
  C      -0.731921     -2.622214      1.838570
  C      -1.199564     -1.880707      2.917043
  C      -2.401839     -2.173264      3.535799
  C      -3.181179     -3.229639      3.083973
  C      -2.738894     -3.990742      2.025362
  C      -1.519168     -3.703022      1.402772
  N      -1.130561     -4.549832      0.338218
  O      -1.957165     -5.343592     -0.114776
  O       0.016105     -4.481287     -0.107857
  C       1.604904      2.395619     -3.287286
  N       0.686033      2.960269     -2.330776
  H       0.874396      2.802626     -1.351837
  H       1.663065      1.313291     -3.165033
  H       1.238654      2.628287     -4.285611
  H       2.597070      2.825310     -3.153204
  C      -3.395753      5.471318     -1.557296
  O      -3.586766      5.475802     -0.347739
  C      -4.283485      6.168872     -2.546878
  H      -5.092545      6.662509     -2.017208
  H      -3.710975      6.906785     -3.103194
  H      -4.696343      5.450508     -3.250729
>
47
Coordinates from ORCA-job /home/esp/scriptDevelopment/drFrankenstein/11_PCY_CHARMM/04_torsion_scanning/torsion_NH1-CT1-CG321-CG2R61/scans_PCY_conformer_4/PCY_conformer_4_backwards/orca_scan Relaxed Surface Scan Step 11 E -79.900854637570
  H       0.448426     -2.276553      0.076805
  H      -0.591143     -1.060653      3.284301
  H       2.028958      1.239712      2.142049
  H      -1.906265      4.192488      0.380372
  H       1.268316     -2.992708      1.461960
  H       1.201047      3.445089      1.409515
  H      -1.157822     -0.654505      0.019151
  H      -0.267048      4.763488      0.114317
  H      -4.218599     -3.302990      3.522823
  H      -1.964884      1.521580     -0.711187
  H      -3.476420     -4.662983      1.588260
  H      -2.344369      4.673089     -3.139210
  H      -2.740649     -1.503411      4.373820
  N      -2.359688      4.694464     -2.112849
  C      -1.263686      4.064020     -1.615619
  C      -0.385717      3.591001     -2.678713
  C      -0.979795      3.976986     -0.158647
  O      -0.747868      3.708593     -3.868266
  C      -0.436580      2.640933      0.280158
  C       0.688664      2.548719      1.094696
  C       1.158234      1.320603      1.511867
  C       0.510443      0.147783      1.124227
  C      -0.621321      0.230925      0.320695
  C      -1.082255      1.468650     -0.091382
  O       1.061591     -1.011949      1.593746
  C       0.523270     -2.244628      1.170758
  C      -0.797450     -2.584330      1.813537
  C      -1.228489     -1.845820      2.909247
  C      -2.442147     -2.096045      3.524244
  C      -3.270650     -3.104533      3.050766
  C      -2.866037     -3.861371      1.974111
  C      -1.634908     -3.616952      1.355749
  N      -1.287699     -4.456444      0.270928
  O      -2.156773     -5.184168     -0.211300
  O      -0.134577     -4.446044     -0.162267
  C       1.739325      2.540976     -3.293581
  N       0.812651      3.084291     -2.332277
  H       1.028977      2.959146     -1.354669
  H       1.850360      1.465007     -3.151340
  H       1.344283      2.734577     -4.289323
  H       2.712169      3.019433     -3.187131
  C      -3.451421      5.250931     -1.497736
  O      -3.587891      5.299411     -0.281678
  C      -4.452895      5.797511     -2.473633
  H      -5.287091      6.227802     -1.927886
  H      -3.990190      6.563139     -3.091358
  H      -4.815396      5.003718     -3.122092
>
47
Coordinates from ORCA-job /home/esp/scriptDevelopment/drFrankenstein/11_PCY_CHARMM/04_torsion_scanning/torsion_NH1-CT1-CG321-CG2R61/scans_PCY_conformer_4/PCY_conformer_4_backwards/orca_scan Relaxed Surface Scan Step 12 E -79.901356333850
  H       0.276088     -2.312810     -0.012926
  H      -0.526486     -1.070126      3.250232
  H       2.113553      1.119690      1.987579
  H      -1.799314      4.233817      0.400596
  H       1.142274     -3.072873      1.319367
  H       1.339683      3.363223      1.316394
  H      -1.249174     -0.623872      0.011986
  H      -0.139898      4.754003      0.110838
  H      -4.225153     -3.159921      3.693693
  H      -2.000858      1.589437     -0.662223
  H      -3.652145     -4.543182      1.718417
  H      -2.331464      4.560372     -3.127511
  H      -2.626989     -1.426367      4.460350
  N      -2.354054      4.566353     -2.101083
  C      -1.185271      4.084122     -1.605824
  C      -0.254369      3.720289     -2.665648
  C      -0.886872      3.997798     -0.151505
  O      -0.605575      3.837099     -3.858489
  C      -0.382043      2.636073      0.261537
  C       0.777601      2.491259      1.017529
  C       1.216827      1.241428      1.401989
  C       0.503203      0.099574      1.038490
  C      -0.662354      0.236062      0.292959
  C      -1.090964      1.495212     -0.088502
  O       1.028625     -1.085890      1.472184
  C       0.414753     -2.291513      1.075020
  C      -0.880376     -2.578196      1.791615
  C      -1.216723     -1.826436      2.911271
  C      -2.402629     -2.028033      3.594460
  C      -3.298328     -2.999516      3.168247
  C      -2.987862     -3.768878      2.069442
  C      -1.785134     -3.573460      1.381720
  N      -1.535625     -4.422982      0.277782
  O      -2.458619     -5.115846     -0.151651
  O      -0.411579     -4.453775     -0.224203
  C       1.967546      2.879424     -3.262375
  N       0.975675      3.305380     -2.306919
  H       1.177760      3.155271     -1.330043
  H       2.169034      1.812655     -3.155573
  H       1.579797      3.075077     -4.260572
  H       2.892015      3.436436     -3.114155
  C      -3.506595      4.983558     -1.486167
  O      -3.651231      5.008496     -0.270382
  C      -4.565435      5.406938     -2.462755
  H      -5.448581      5.726179     -1.917780
  H      -4.200151      6.228323     -3.074096
  H      -4.823593      4.578108     -3.117356
>
47
Coordinates from ORCA-job /home/esp/scriptDevelopment/drFrankenstein/11_PCY_CHARMM/04_torsion_scanning/torsion_NH1-CT1-CG321-CG2R61/scans_PCY_conformer_4/PCY_conformer_4_backwards/orca_scan Relaxed Surface Scan Step 13 E -79.901620633470
  H       0.076842     -2.339643     -0.107073
  H      -0.428928     -1.117520      3.226970
  H       2.197172      0.991762      1.771661
  H      -1.733940      4.252740      0.408942
  H       1.001945     -3.148596      1.155432
  H       1.472180      3.271371      1.175060
  H      -1.380540     -0.589420      0.054356