
                                 *****************
                                 * O   R   C   A *
                                 *****************

                                            #,                                       
                                            ###                                      
                                            ####                                     
                                            #####                                    
                                            ######                                   
                                           ########,                                 
                                     ,,################,,,,,                         
                               ,,#################################,,                 
                          ,,##########################################,,             
                       ,#########################################, ''#####,          
                    ,#############################################,,   '####,        
                  ,##################################################,,,,####,       
                ,###########''''           ''''###############################       
              ,#####''   ,,,,##########,,,,          '''####'''          '####       
            ,##' ,,,,###########################,,,                        '##       
           ' ,,###''''                  '''############,,,                           
         ,,##''                                '''############,,,,        ,,,,,,###''
      ,#''                                            '''#######################'''  
     '                                                          ''''####''''         
             ,#######,   #######,   ,#######,      ##                                
            ,#'     '#,  ##    ##  ,#'     '#,    #''#        ,####,    ,#,          
            ##       ##  ##   ,#'  ##            #'  '#       #'       ,# #          
            ##       ##  #######   ##           ,######,      #####,      #          
            '#,     ,#'  ##    ##  '#,     ,#' ,#      #,     #,   #      #          
             '#######'   ##     ##  '#######'  #'      '#     '####' #    #          



                #########################################################
                #                        -***-                          #
                #          Department of theory and spectroscopy        #
                #                                                       #
                #                      Frank Neese                      #
                #                                                       #
                #     Directorship, Architecture, Infrastructure        #
                #                    SHARK, DRIVERS                     #
                #        Core code/Algorithms in most modules           #
                #                                                       #
                #        Max Planck Institute fuer Kohlenforschung      #
                #                Kaiser Wilhelm Platz 1                 #
                #                 D-45470 Muelheim/Ruhr                 #
                #                      Germany                          #
                #                                                       #
                #                  All rights reserved                  #
                #                        -***-                          #
                #########################################################


                         Program Version 6.1.0  -  RELEASE   -
                                (GIT: $679e74b$)
                          ($2025-06-10 18:02:51 +0200$)


 With contributions from (in alphabetic order):
[Max-Planck-Institut fuer Kohlenforschung]                               
  Daniel Aravena         : Magnetic Suceptibility                        
  Michael Atanasov       : Ab Initio Ligand Field Theory (pilot matlab implementation)
  Alexander A. Auer      : GIAO ZORA, VPT2 properties, NMR spectrum      
  Ute Becker             : All parallelization in ORCA, NUMFREQ, NUMCALC 
  Giovanni Bistoni       : ED, misc. LED, open-shell LED, HFLD           
  Dmytro Bykov           : pre 5.0 version of the SCF Hessian            
  Marcos Casanova-Páez   : Triplet and SCS-CIS(D). UHF-(DLPNO)-IP/EA/STEOM-CCSD. UHF-CVS-IP/STEOM-CCSD   
  Vijay G. Chilkuri      : MRCI spin determinant printing, contributions to CSF-ICE 
  Pauline Colinet        : FMM embedding                                 
  Dipayan Datta          : RHF DLPNO-CCSD density                        
  Achintya Kumar Dutta   : EOM-CC, STEOM-CC                              
  Nicolas Foglia         : Exact transition moments, OPA infrastructure, MCD improvements    
  Dmitry Ganyushin       : Spin-Orbit,Spin-Spin,Magnetic field MRCI      
  Miquel Garcia-Rates    : C-PCM and meta-GGA Hessian, CCSD/C-PCM, Gaussian charge scheme 
  Tiago L. C. Gouveia    : GS-ROHF, GS-ROCIS                             
  Yang Guo               : DLPNO-NEVPT2, F12-NEVPT2, CIM, IAO-localization        
  Andreas Hansen         : Spin unrestricted coupled pair/coupled cluster methods 
  Ingolf Harden          : AUTO-CI MPn and infrastructure                
  Benjamin Helmich-Paris : MC-RPA, TRAH-(SCF,CASSCF), AVAS, COSX integrals, SCF dyn. polar., MC-PDFT, srDFT 
  Lee Huntington         : MR-EOM, pCC                                   
  Robert Izsak           : Overlap fitted RIJCOSX, COSX-SCS-MP3, EOM     
  Riya Kayal             : Wick's Theorem for AUTO-CI, AUTO-CI UHF-CCSDT 
  Emily Kempfer          : AUTO-CI RHF CISDT and CCSDT, approximate NEVPT4
  Christian Kollmar      : KDIIS, OOCD, Brueckner-CCSD(T), CCSD density, CASPT2, CASPT2-K, improved NEVPT2 
  Axel Koslowski         : Symmetry handling                             
  Simone Kossmann        : meta-GGA functionals, TD-DFT gradient, OOMP2, (MP2 Hessian; deprecated post 5.0) 
  Lucas Lang             : DCDCAS, Hyperfine gauge corrections, ICE-SOC+SSC
  Marvin Lechner         : AUTO-CI (C++ implementation), FIC-MRCC        
  Spencer Leger          : CASSCF response                               
  Dagmar Lenk            : GEPOL surface, SMD, ORCA-2-JSON               
  Dimitrios Liakos       : Extrapolation schemes; Compound Job, Property file
  Dimitrios Manganas     : Further ROCIS development; embedding schemes. LFT, Crystal Embedding 
  Dimitrios Pantazis     : SARC Basis sets                               
  Anastasios Papadopoulos: AUTO-CI, single reference methods and gradients 
  Taras Petrenko         : pre 6.0 DFT Hessian and TD-DFT gradient,  ECA, NRVS 
  Petra Pikulova         : Analytic Raman intensities                    
  Peter Pinski           : DLPNO-MP2, DLPNO-MP2 Gradient                 
  Shashank Vittal Rao    : ES-AILFT, MagRelax                            
  Christoph Reimann      : Effective Core Potentials                     
  Marius Retegan         : Local ZFS, SOC                                
  Christoph Riplinger    : Optimizer, TS searches, QM/MM, DLPNO-CCSD(T), (RO)-DLPNO pert. Triples 
  Michael Roemelt        : Original ROCIS implementation, recursive CI coupling coefficients
  Masaaki Saitow         : Open-shell DLPNO-CCSD energy and density      
  Barbara Sandhoefer     : DKH picture change effects                    
  Yorick L. A. Schmerwitz: GMF and freeze-and-release deltaSCF, NEB S-IDPP initial path                    
  Kantharuban Sivalingam : CASSCF convergence/infrastructure, NEVPT2, NEVPT3, NEVPT4(SD), FIC-MRCI and CEPA variants
  Bernardo de Souza      : ESD, SOC TD-DFT                               
  Georgi L. Stoychev     : AutoAux, RI-MP2 NMR, DLPNO-MP2 response, X2C  
  Van Anh Tran           : RI-MP2 g-tensors                              
  Willem Van den Heuvel  : Paramagnetic NMR                              
  Zikuan Wang            : NOTCH, Electric field optimization            
  Frank Wennmohs         : Technical directorship and infrastructure     
  Hang Xu                : AUTO-CI-Response properties                   
                                                                         
[FACCTs GmbH]                                                            
  Markus Bursch, Nicolas Foglia, Miquel Garcia-Rates, Ingolf Harden, Hagen Neugebauer, Anastasios Papadopoulos, 
  Christoph Riplinger, Bernardo de Souza, Georgi L. Stoychev                                                    
                                                                 
  APM, various basis sets, CI-OPT, improved COSX, DLPNO-Multilevel,           
  DOCKER, DRACO, updates on ESD, Fragmentator, GOAT, IRC, LR-CPCM, L-BFGS, MBIS, meta-GGA TD-DFT gradient, ML-optimized integration grids, 
  MM, NACMEs, nearIR, NEB, NEB-TS, NL-DFT gradient (VV10), 2- and 3-layer-ONIOM, interface openCOSMO-RS, QMMM,   
  Crystal-QMMM, RESP, rigid body optimization, SF, symmetry and pop. for TD-DFT, various functionals, SOLVATOR                                   
                                                                         
[Other institutions]                                                     
  V. Asgeirsson          : NEB                                           
  Christoph Bannwarth    : sTDA-DFT, sTD-DFT, PBEh-3c, B97-3c, D3        
  Giovanni Bistoni       : ETS/NOCV, ADLD/ADEX, COVALED                  
  Martin Brehm           : Molecular dynamics                            
  Ronald Cardenas        : ETS/NOCV                                      
  Martina Colucci        : COVALED                                       
  Sebastian Ehlert       : rSCAN, r2SCAN, r2SCAN-3c, D4, dhf basis sets  
  Marvin Friede          : D4 for Fr, Ra, Ac-Lr                          
  Lars Goerigk           : TD-DFT with DH, B97 family of functionals     
  Stefan Grimme          : VdW corrections, initial TS optimization, DFT functionals, gCP, sTDA/sTD-DF 
  Waldemar Hujo          : DFT-NL                                        
  H. Jonsson             : NEB                                           
  Holger Kruse           : gCP                                           
  Marcel Mueller         : wB97X-3c, vDZP basis set                      
  Hagen Neugebauer       : wr2SCAN, Native XTB                           
  Gianluca Regni         : ADLD/ADEX                                     
  Tobias Risthaus        : pre 6.0 range-separated hybrid DFT and stability analysis
  Lukas Wittmann         : regularized MP2, r2SCAN double-hybrids, wr2SCAN        
                                                                         
We gratefully acknowledge several colleagues who have allowed us to      
interface, adapt or use parts of their codes:                            
  Ed Valeev, F. Pavosevic, A. Kumar             : LibInt (2-el integral package), F12 methods 
  Garnet Chan, S. Sharma, J. Yang, R. Olivares  : DMRG                   
  Ulf Ekstrom                                   : XCFun DFT Library      
  Mihaly Kallay                                 : mrcc  (arbitrary order and MRCC methods)
  Frank Weinhold                                : gennbo (NPA and NBO analysis)           
  Simon Mueller                                 : openCOSMO-RS                            
  Christopher J. Cramer and Donald G. Truhlar   : smd solvation model                     
  S Lehtola, MJT Oliveira, MAL Marques          : LibXC Library                           
  Liviu Ungur et al                             : ANISO software                          


 Your calculation uses the libint2 library for the computation of 2-el integrals
 For citations please refer to: http://libint.valeyev.net

 Your ORCA version has been built with support for libXC version: 7.0.0
 For citations please refer to: https://libxc.gitlab.io

 This ORCA versions uses:
   CBLAS   interface :  Fast vector & matrix operations
   LAPACKE interface :  Fast linear algebra routines
   SCALAPACK package :  Parallel linear algebra routines
   Shared memory     :  Shared parallel matrices
   BLAS/LAPACK       :  OpenBLAS 0.3.29  USE64BITINT DYNAMIC_ARCH NO_AFFINITY Haswell SINGLE_THREADED
        Core in use  :  Haswell
   Copyright (c) 2011-2014, The OpenBLAS Project


  ***********************************
  * Starting time: Wed Jul 16 15:48:04 2025
  * Host name:     MONSTER
  * Process ID:    442521
  * Working dir.:  /home/esp/scriptDevelopment/drFrankenstein
  ***********************************



***************************************
The coordinates will be read from file: /home/esp/scriptDevelopment/drFrankenstein/11_PCY_CHARMM/03_GOAT_conformers/PCY_conformer_21.xyz
***************************************


Your calculation utilizes the semiempirical GFN2-xTB method
Please cite in your paper:
Bannwarth, C.; Ehlert S.; Grimme, S. J. Chem. Theory Comput. 2019, 15, 1652.
   

================================================================================

================================================================================
                                        WARNINGS
                       Please study these warnings very carefully!
================================================================================


WARNING: Geometry Optimization
  ===> : Switching off AutoStart
         For restart on a previous wavefunction, please use MOREAD

WARNING: Found dipole moment calculation with XTB calculation
  ===> : Switching off dipole moment calculation


================================================================================
                                       INPUT FILE
================================================================================
NAME = /home/esp/scriptDevelopment/drFrankenstein/11_PCY_CHARMM/04_torsion_scanning/torsion_NH1-CT1-CG321-CG2R61/scans_PCY_conformer_21/PCY_conformer_21_opt/orca_opt.inp
|  1>  # --------------------------------- #
|  2>  #  Geometry Optimisation            #
|  3>  # --------------------------------- #
|  4> ! XTB2 ALPB(water) Opt
|  5> *xyzfile 0 1 /home/esp/scriptDevelopment/drFrankenstein/11_PCY_CHARMM/03_GOAT_conformers/PCY_conformer_21.xyz
|  6> 
|  7> 
|  8>                          ****END OF INPUT****
================================================================================

                       *****************************
                       * Geometry Optimization Run *
                       *****************************

Geometry optimization settings:
Update method            Update   .... BFGS
Choice of coordinates    CoordSys .... (2022) Redundant Internals
Initial Hessian          InHess   .... Almloef's Model
Max. no of cycles        MaxIter  .... 141

Convergence Tolerances:
Energy Change            TolE     ....  5.0000e-06 Eh
Max. Gradient            TolMAXG  ....  3.0000e-04 Eh/bohr
RMS Gradient             TolRMSG  ....  1.0000e-04 Eh/bohr
Max. Displacement        TolMAXD  ....  4.0000e-03 bohr
RMS Displacement         TolRMSD  ....  2.0000e-03 bohr
Strict Convergence                .... False

------------------------------------------------------------------------------
                        ORCA OPTIMIZATION COORDINATE SETUP
------------------------------------------------------------------------------

The optimization will be done in redundant internal coordinates (2022)
Making redundant internal coordinates   ...  (2022 redundants) done
Evaluating the initial hessian          ...  (Almloef) done
Evaluating the coordinates              ...  done
Calculating the B-matrix                .... done
Calculating the G-matrix                .... done
The number of degrees of freedom        ....  227

    -----------------------------------------------------------------
                    Redundant Internal Coordinates


    -----------------------------------------------------------------
         Definition                    Initial Value    Approx d2E/dq
    -----------------------------------------------------------------
      1. B(N  13,H  11)                  1.0267         0.406965   
      2. B(C  14,N  13)                  1.3613         0.621926   
      3. B(C  15,C  14)                  1.4538         0.494332   
      4. B(C  16,H   3)                  1.0915         0.358129   
      5. B(C  16,C  14)                  1.4901         0.432600   
      6. B(C  16,H   7)                  1.0949         0.353617   
      7. B(O  17,C  15)                  1.2370         0.981803   
      8. B(O  17,H  11)                  1.9804         0.012246   
      9. B(C  18,C  16)                  1.5101         0.401872   
     10. B(C  19,C  18)                  1.3914         0.621580   
     11. B(C  19,H   5)                  1.0796         0.374085   
     12. B(C  20,C  19)                  1.3773         0.654544   
     13. B(C  20,H   2)                  1.0785         0.375612   
     14. B(C  21,C  20)                  1.3955         0.612317   
     15. B(C  22,C  21)                  1.3894         0.626093   
     16. B(C  22,H   6)                  1.0780         0.376328   
     17. B(C  23,C  22)                  1.3852         0.635944   
     18. B(C  23,C  18)                  1.3876         0.630339   
     19. B(C  23,H   9)                  1.0819         0.370913   
     20. B(O  24,C  21)                  1.3654         0.612550   
     21. B(C  25,O  24)                  1.4117         0.516665   
     22. B(C  25,H   4)                  1.0965         0.351637   
     23. B(C  25,H   0)                  1.0936         0.355375   
     24. B(C  26,C  25)                  1.5145         0.395422   
     25. B(C  27,C  26)                  1.3914         0.621662   
     26. B(C  27,H   1)                  1.0795         0.374255   
     27. B(C  28,C  27)                  1.3826         0.641911   
     28. B(C  28,H  12)                  1.0794         0.374370   
     29. B(C  29,C  28)                  1.3866         0.632759   
     30. B(C  29,H   8)                  1.0785         0.375576   
     31. B(C  30,C  29)                  1.3794         0.649605   
     32. B(C  30,H  10)                  1.0796         0.374138   
     33. B(C  31,C  30)                  1.3932         0.617569   
     34. B(C  31,C  26)                  1.3977         0.607437   
     35. B(N  32,C  31)                  1.4413         0.463474   
     36. B(O  33,N  32)                  1.2176         0.944117   
     37. B(O  34,N  32)                  1.2129         0.960655   
     38. B(N  36,C  35)                  1.4393         0.466920   
     39. B(N  36,C  15)                  1.3586         0.627912   
     40. B(H  37,N  36)                  1.0073         0.437010   
     41. B(H  38,H  12)                  2.9377         0.010000   
     42. B(H  38,C  35)                  1.0937         0.355268   
     43. B(H  39,C  35)                  1.0889         0.361553   
     44. B(H  40,C  35)                  1.0916         0.358046   
     45. B(C  41,N  13)                  1.3729         0.595809   
     46. B(O  42,C  41)                  1.2141         1.067778   
     47. B(C  43,C  41)                  1.5093         0.403076   
     48. B(H  44,C  43)                  1.0860         0.365442   
     49. B(H  45,C  43)                  1.0882         0.362512   
     50. B(H  46,C  43)                  1.0881         0.362569   
     51. A(H  11,N  13,C  41)          118.8794         0.352566   
     52. A(C  14,N  13,C  41)          131.8235         0.425603   
     53. A(H  11,N  13,C  14)          109.2959         0.355138   
     54. A(N  13,C  14,C  15)          111.3164         0.414352   
     55. A(N  13,C  14,C  16)          123.3259         0.404676   
     56. A(C  15,C  14,C  16)          125.2790         0.391175   
     57. A(O  17,C  15,N  36)          122.6134         0.466708   
     58. A(C  14,C  15,O  17)          119.7303         0.449772   
     59. A(C  14,C  15,N  36)          117.6312         0.415058   
     60. A(H   3,C  16,H   7)          108.1199         0.289762   
     61. A(H   3,C  16,C  14)          108.4155         0.331961   
     62. A(C  14,C  16,C  18)          110.2774         0.377340   
     63. A(H   3,C  16,C  18)          110.2435         0.327943   
     64. A(H   7,C  16,C  14)          110.1093         0.331265   
     65. A(H   7,C  16,C  18)          109.6381         0.327258   
     66. A(C  16,C  18,C  23)          121.6353         0.402984   
     67. A(C  19,C  18,C  23)          118.4722         0.435560   
     68. A(C  16,C  18,C  19)          119.8469         0.401991   
     69. A(C  18,C  19,C  20)          120.7339         0.438528   
     70. A(H   5,C  19,C  18)          119.4542         0.355348   
     71. A(H   5,C  19,C  20)          119.8110         0.358482   
     72. A(H   2,C  20,C  21)          118.4645         0.354689   
     73. A(C  19,C  20,C  21)          120.4319         0.437342   
     74. A(H   2,C  20,C  19)          121.1003         0.358730   
     75. A(C  22,C  21,O  24)          124.8518         0.431048   
     76. A(C  20,C  21,O  24)          115.8897         0.429330   
     77. A(C  20,C  21,C  22)          119.2561         0.433856   
     78. A(C  21,C  22,C  23)          119.6626         0.436824   
     79. A(H   6,C  22,C  23)          118.8291         0.357091   
     80. A(H   6,C  22,C  21)          121.5051         0.356146   
     81. A(C  18,C  23,C  22)          121.3721         0.437356   
     82. A(H   9,C  23,C  22)          118.6825         0.356213   
     83. A(H   9,C  23,C  18)          119.9446         0.355678   
     84. A(C  21,O  24,C  25)          117.6410         0.413799   
     85. A(H   0,C  25,H   4)          108.4461         0.289157   
     86. A(O  24,C  25,C  26)          111.8272         0.385607   
     87. A(H   4,C  25,C  26)          108.7148         0.326086   
     88. A(H   0,C  25,C  26)          112.1608         0.326654   
     89. A(H   4,C  25,O  24)          104.4721         0.338808   
     90. A(H   0,C  25,O  24)          110.8559         0.339406   
     91. A(C  27,C  26,C  31)          117.4542         0.432679   
     92. A(C  25,C  26,C  31)          124.6415         0.399227   
     93. A(C  25,C  26,C  27)          117.8439         0.400856   
     94. A(C  26,C  27,C  28)          121.7025         0.437000   
     95. A(H   1,C  27,C  28)          119.9755         0.357323   
     96. A(H   1,C  27,C  26)          118.3220         0.355383   
     97. A(C  27,C  28,C  29)          120.1330         0.438396   
     98. A(H  12,C  28,C  29)          120.1629         0.356471   
     99. A(H  12,C  28,C  27)          119.6996         0.357342   
    100. A(C  28,C  29,C  30)          119.3392         0.439340   
    101. A(H   8,C  29,C  30)          120.0976         0.358262   
    102. A(H   8,C  29,C  28)          120.5631         0.356666   
    103. A(C  29,C  30,C  31)          120.3654         0.437418   
    104. A(H  10,C  30,C  31)          118.4219         0.354967   
    105. A(H  10,C  30,C  29)          121.2081         0.358029   
    106. A(C  30,C  31,N  32)          115.8595         0.409130   
    107. A(C  26,C  31,N  32)          123.1533         0.407933   
    108. A(C  26,C  31,C  30)          120.9781         0.432166   
    109. A(O  33,N  32,O  34)          124.5518         0.494308   
    110. A(C  31,N  32,O  34)          117.2533         0.436942   
    111. A(C  31,N  32,O  33)          118.1649         0.435578   
    112. A(N  36,C  35,H  38)          110.9919         0.333717   
    113. A(H  39,C  35,H  40)          109.4609         0.290762   
    114. A(H  38,C  35,H  40)          108.9544         0.289963   
    115. A(N  36,C  35,H  40)          110.3621         0.334149   
    116. A(H  38,C  35,H  39)          109.5057         0.290407   
    117. A(N  36,C  35,H  39)          107.5424         0.334690   
    118. A(C  35,N  36,H  37)          117.5009         0.342472   
    119. A(C  15,N  36,H  37)          118.9837         0.360050   
    120. A(C  15,N  36,C  35)          121.8154         0.408226   
    121. A(O  42,C  41,C  43)          124.1315         0.440094   
    122. A(N  13,C  41,C  43)          112.0190         0.396663   
    123. A(N  13,C  41,O  42)          123.8495         0.469408   
    124. A(H  45,C  43,H  46)          108.5246         0.291458   
    125. A(H  44,C  43,H  46)          109.3640         0.291827   
    126. A(C  41,C  43,H  46)          110.2674         0.328773   
    127. A(H  44,C  43,H  45)          109.2983         0.291819   
    128. A(C  41,C  43,H  45)          110.0686         0.328764   
    129. A(C  41,C  43,H  44)          109.2980         0.329201   
    130. D(C  16,C  14,N  13,C  41)      1.5820         0.031336   
    131. D(C  15,C  14,N  13,C  41)    178.5070         0.031336   
    132. D(C  16,C  14,N  13,H  11)   -177.9912         0.031336   
    133. D(C  15,C  14,N  13,H  11)     -1.0661         0.031336   
    134. D(N  36,C  15,C  14,N  13)    178.8848         0.016641   
    135. D(O  17,C  15,C  14,C  16)    177.5140         0.016641   
    136. D(N  36,C  15,C  14,C  16)     -4.2626         0.016641   
    137. D(O  17,C  15,C  14,N  13)      0.6614         0.016641   
    138. D(H   7,C  16,C  14,C  15)     66.0278         0.013818   
    139. D(C  18,C  16,C  14,N  13)    121.3995         0.013818   
    140. D(H   3,C  16,C  14,C  15)   -175.8744         0.013818   
    141. D(H   3,C  16,C  14,N  13)      0.6160         0.013818   
    142. D(H   7,C  16,C  14,N  13)   -117.4818         0.013818   
    143. D(C  19,C  18,C  16,H   3)     62.2729         0.011981   
    144. D(C  19,C  18,C  16,H   7)   -178.8097         0.011981   
    145. D(C  19,C  18,C  16,C  14)    -57.4103         0.011981   
    146. D(C  23,C  18,C  16,H   7)     -1.3028         0.011981   
    147. D(C  23,C  18,C  16,H   3)   -120.2203         0.011981   
    148. D(C  20,C  19,C  18,C  16)    175.6677         0.026743   
    149. D(H   5,C  19,C  18,C  23)    178.4207         0.026743   
    150. D(C  20,C  19,C  18,C  23)     -1.9176         0.026743   
    151. D(H   5,C  19,C  18,C  16)     -3.9940         0.026743   
    152. D(C  21,C  20,C  19,C  18)     -0.3521         0.029860   
    153. D(C  21,C  20,C  19,H   5)    179.3084         0.029860   
    154. D(H   2,C  20,C  19,C  18)   -179.6852         0.029860   
    155. D(H   2,C  20,C  19,H   5)     -0.0246         0.029860   
    156. D(O  24,C  21,C  20,C  19)   -177.0941         0.025906   
    157. D(O  24,C  21,C  20,H   2)      2.2563         0.025906   
    158. D(C  22,C  21,C  20,C  19)      2.3709         0.025906   
    159. D(C  22,C  21,C  20,H   2)   -178.2787         0.025906   
    160. D(H   6,C  22,C  21,C  20)    177.2587         0.027158   
    161. D(C  23,C  22,C  21,O  24)    177.3302         0.027158   
    162. D(C  23,C  22,C  21,C  20)     -2.0833         0.027158   
    163. D(H   6,C  22,C  21,O  24)     -3.3278         0.027158   
    164. D(C  18,C  23,C  22,C  21)     -0.2090         0.028075   
    165. D(C  18,C  23,C  22,H   6)   -179.5686         0.028075   
    166. D(H   9,C  23,C  22,C  21)    179.4504         0.028075   
    167. D(H   9,C  23,C  22,H   6)      0.0907         0.028075   
    168. D(C  22,C  23,C  18,C  19)      2.2059         0.027551   
    169. D(C  22,C  23,C  18,C  16)   -175.3341         0.027551   
    170. D(H   9,C  23,C  18,C  19)   -177.4492         0.027551   
    171. D(H   9,C  23,C  18,C  16)      5.0108         0.027551   
    172. D(C  25,O  24,C  21,C  22)    -11.7262         0.027481   
    173. D(C  25,O  24,C  21,C  20)    167.7051         0.027481   
    174. D(C  26,C  25,O  24,C  21)    -63.0849         0.021153   
    175. D(H   4,C  25,O  24,C  21)    179.5062         0.021153   
    176. D(H   0,C  25,O  24,C  21)     62.8893         0.021153   
    177. D(C  31,C  26,C  25,H   4)    -96.1589         0.011616   
    178. D(C  31,C  26,C  25,H   0)     23.7552         0.011616   
    179. D(C  27,C  26,C  25,O  24)    -33.8949         0.011616   
    180. D(C  27,C  26,C  25,H   4)     80.9347         0.011616   
    181. D(C  27,C  26,C  25,H   0)   -159.1512         0.011616   
    182. D(C  28,C  27,C  26,C  31)     -0.8190         0.026751   
    183. D(C  28,C  27,C  26,C  25)   -178.1245         0.026751   
    184. D(H   1,C  27,C  26,C  31)    179.2833         0.026751   
    185. D(H   1,C  27,C  26,C  25)      1.9778         0.026751   
    186. D(C  29,C  28,C  27,C  26)      1.4777         0.028640   
    187. D(C  29,C  28,C  27,H   1)   -178.6264         0.028640   
    188. D(H  12,C  28,C  27,C  26)   -179.2976         0.028640   
    189. D(H  12,C  28,C  27,H   1)      0.5984         0.028640   
    190. D(C  30,C  29,C  28,H  12)   -179.7641         0.027776   
    191. D(H   8,C  29,C  28,C  27)    179.3777         0.027776   
    192. D(H   8,C  29,C  28,H  12)      0.1565         0.027776   
    193. D(C  30,C  29,C  28,C  27)     -0.5429         0.027776   
    194. D(C  31,C  30,C  29,C  28)     -0.9989         0.029379   
    195. D(C  31,C  30,C  29,H   8)    179.0801         0.029379   
    196. D(H  10,C  30,C  29,C  28)    179.8015         0.029379   
    197. D(H  10,C  30,C  29,H   8)     -0.1194         0.029379   
    198. D(N  32,C  31,C  30,C  29)   -177.2721         0.026379   
    199. D(N  32,C  31,C  30,H  10)      1.9494         0.026379   
    200. D(C  26,C  31,C  30,C  29)      1.6625         0.026379   
    201. D(C  26,C  31,C  30,H  10)   -179.1159         0.026379   
    202. D(N  32,C  31,C  26,C  27)    178.1124         0.025471   
    203. D(N  32,C  31,C  26,C  25)     -4.7837         0.025471   
    204. D(C  30,C  31,C  26,C  27)     -0.7425         0.025471   
    205. D(C  30,C  31,C  26,C  25)    176.3614         0.025471   
    206. D(O  34,N  32,C  31,C  30)    -33.3747         0.016925   
    207. D(O  34,N  32,C  31,C  26)    147.7163         0.016925   
    208. D(O  33,N  32,C  31,C  30)    144.7252         0.016925   
    209. D(O  33,N  32,C  31,C  26)    -34.1838         0.016925   
    210. D(H  37,N  36,C  35,H  39)    173.7921         0.018622   
    211. D(H  37,N  36,C  35,H  38)     54.0318         0.018622   
    212. D(C  15,N  36,C  35,H  40)    128.1504         0.018622   
    213. D(C  15,N  36,C  35,H  39)      8.8082         0.018622   
    214. D(C  15,N  36,C  35,H  38)   -110.9522         0.018622   
    215. D(H  37,N  36,C  15,O  17)   -172.0011         0.031991   
    216. D(H  37,N  36,C  15,C  14)      9.8304         0.031991   
    217. D(C  35,N  36,C  15,O  17)     -7.2324         0.031991   
    218. D(C  35,N  36,C  15,C  14)    174.5991         0.031991   
    219. D(C  43,C  41,N  13,C  14)   -179.6777         0.028576   
    220. D(C  43,C  41,N  13,H  11)     -0.1378         0.028576   
    221. D(O  42,C  41,N  13,C  14)      0.2860         0.028576   
    222. D(O  42,C  41,N  13,H  11)    179.8259         0.028576   
    223. D(H  46,C  43,C  41,N  13)     59.1619         0.012049   
    224. D(H  45,C  43,C  41,O  42)    119.4971         0.012049   
    225. D(H  45,C  43,C  41,N  13)    -60.5393         0.012049   
    226. D(H  44,C  43,C  41,O  42)     -0.5505         0.012049   
    227. D(H  44,C  43,C  41,N  13)    179.4132         0.012049   
    -----------------------------------------------------------------

Number of atoms                         .... 47
Number of degrees of freedom            .... 227


         *************************************************************
         *                GEOMETRY OPTIMIZATION CYCLE   1            *
         *************************************************************
---------------------------------
CARTESIAN COORDINATES (ANGSTROEM)
---------------------------------
  H     0.480420   -2.062660    2.748980
  H    -1.471820    0.997360    3.280880
  H     1.398900    2.220210    1.782510
  H     1.233120    1.874450   -3.108220
  H     0.230650   -1.184440    4.273240
  H     1.249110    2.949820   -0.573770
  H    -0.124420   -1.617750    0.672220
  H    -0.142960    0.778350   -3.304730
  H    -5.315410   -0.737610    2.595370
  H    -0.260280   -0.897680   -1.638670
  H    -4.247640   -2.969930    2.436050
  H    -1.038280    4.643360   -3.090800
  H    -3.900100    1.253160    3.008890
  N    -0.264820    3.978540   -3.208610
  C    -0.634780    2.765710   -2.713450
  C    -1.979030    2.807950   -2.161530
  C     0.269910    1.582030   -2.686230
  O    -2.625100    3.862090   -2.199980
  C     0.447570    1.091580   -1.269060
  C     0.938230    1.954480   -0.294040
  C     1.024230    1.554520    1.021140
  C     0.612560    0.275930    1.399470
  C     0.160950   -0.607580    0.426850
  C     0.085040   -0.193930   -0.892950
  O     0.680620   -0.001610    2.734620
  C     0.034120   -1.169260    3.194630
  C    -1.463040   -1.107950    2.974290
  C    -2.085180    0.132100    3.079770
  C    -3.452560    0.273910    2.931900
  C    -4.246930   -0.839000    2.701820
  C    -3.657700   -2.082930    2.611310
  C    -2.276090   -2.218000    2.728890
  N    -1.758100   -3.552150    2.558350
  O    -0.676690   -3.683650    2.014410
  O    -2.453030   -4.470600    2.938670
  C    -3.760290    1.619400   -0.980970
  N    -2.487310    1.655760   -1.651600
  H    -1.877260    0.862740   -1.534870
  H    -3.634430    1.427730    0.088400
  H    -4.234010    2.589490   -1.123190
  H    -4.392890    0.839540   -1.408910
  C     0.900690    4.413430   -3.789470
  O     1.871260    3.706600   -3.969670
  C     0.831220    5.871000   -4.175060
  H     1.776020    6.170190   -4.619150
  H     0.029810    6.029280   -4.893970
  H     0.634740    6.484030   -3.297770

----------------------------
CARTESIAN COORDINATES (A.U.)
----------------------------
  NO LB    ZA    FRAG    MASS        X           Y           Z
   0 H   1.0000    0     1.008    0.907862   -3.897863    5.194819
   1 H   1.0000    0     1.008   -2.781337    1.884737    6.199965
   2 H   1.0000    0     1.008    2.643538    4.195589    3.368456
   3 H   1.0000    0     1.008    2.330259    3.542197   -5.873685
   4 H   1.0000    0     1.008    0.435865   -2.238267    8.075253
   5 H   1.0000    0     1.008    2.360476    5.574352   -1.084268
   6 H   1.0000    0     1.008   -0.235120   -3.057104    1.270312
   7 H   1.0000    0     1.008   -0.270155    1.470868   -6.245035
   8 H   1.0000    0     1.008  -10.044669   -1.393881    4.904539
   9 H   1.0000    0     1.008   -0.491858   -1.696369   -3.096638
  10 H   1.0000    0     1.008   -8.026876   -5.612354    4.603467
  11 H   1.0000    0     1.008   -1.962065    8.774679   -5.840766
  12 H   1.0000    0     1.008   -7.370121    2.368129    5.685978
  13 N   7.0000    0    14.007   -0.500437    7.518351   -6.063394
  14 C   6.0000    0    12.011   -1.199560    5.226434   -5.127677
  15 C   6.0000    0    12.011   -3.739825    5.306256   -4.084700
  16 C   6.0000    0    12.011    0.510056    2.989603   -5.076239
  17 O   8.0000    0    15.999   -4.960720    7.298292   -4.157360
  18 C   6.0000    0    12.011    0.845785    2.062787   -2.398176
  19 C   6.0000    0    12.011    1.772998    3.693432   -0.555655
  20 C   6.0000    0    12.011    1.935514    2.937617    1.929675
  21 C   6.0000    0    12.011    1.157571    0.521432    2.644615
  22 C   6.0000    0    12.011    0.304151   -1.148160    0.806630
  23 C   6.0000    0    12.011    0.160702   -0.366475   -1.687431
  24 O   8.0000    0    15.999    1.286185   -0.003042    5.167683
  25 C   6.0000    0    12.011    0.064477   -2.209581    6.036976
  26 C   6.0000    0    12.011   -2.764745   -2.093722    5.620594
  27 C   6.0000    0    12.011   -3.940419    0.249633    5.819922
  28 C   6.0000    0    12.011   -6.524393    0.517615    5.540488
  29 C   6.0000    0    12.011   -8.025535   -1.585480    5.105700
  30 C   6.0000    0    12.011   -6.912051   -3.936167    4.934661
  31 C   6.0000    0    12.011   -4.301187   -4.191413    5.156855
  32 N   7.0000    0    14.007   -3.322328   -6.712591    4.834581
  33 O   8.0000    0    15.999   -1.278759   -6.961090    3.806683
  34 O   8.0000    0    15.999   -4.635555   -8.448210    5.553281
  35 C   6.0000    0    12.011   -7.105918    3.060223   -1.853765
  36 N   7.0000    0    14.007   -4.700335    3.128933   -3.121072
  37 H   1.0000    0     1.008   -3.547507    1.630342   -2.900484
  38 H   1.0000    0     1.008   -6.868077    2.698019    0.167052
  39 H   1.0000    0     1.008   -8.001119    4.893427   -2.122521
  40 H   1.0000    0     1.008   -8.301359    1.586501   -2.662454
  41 C   6.0000    0    12.011    1.702057    8.340174   -7.161060
  42 O   8.0000    0    15.999    3.536169    7.004459   -7.501589
  43 C   6.0000    0    12.011    1.570778   11.094582   -7.889720
  44 H   1.0000    0     1.008    3.356191   11.659969   -8.728928
  45 H   1.0000    0     1.008    0.056333   11.393688   -9.248263
  46 H   1.0000    0     1.008    1.199485   12.253041   -6.231882

      -----------------------------------------------------------      
     |                   =====================                   |     
     |                           x T B                           |     
     |                   =====================                   |     
     |                         S. Grimme                         |     
     |          Mulliken Center for Theoretical Chemistry        |     
     |                    University of Bonn                     |     
      -----------------------------------------------------------      

   * xtb version 6.7.1 (edcfbbe) compiled by 'albert@albert-system' on 2024-07-22

   xtb is free software: you can redistribute it and/or modify it under
   the terms of the GNU Lesser General Public License as published by
   the Free Software Foundation, either version 3 of the License, or
   (at your option) any later version.
   
   xtb is distributed in the hope that it will be useful,
   but WITHOUT ANY WARRANTY; without even the implied warranty of
   MERCHANTABILITY or FITNESS FOR A PARTICULAR PURPOSE.  See the
   GNU Lesser General Public License for more details.
   
   Cite this work as:
   * C. Bannwarth, E. Caldeweyher, S. Ehlert, A. Hansen, P. Pracht,
     J. Seibert, S. Spicher, S. Grimme, WIREs Comput. Mol. Sci., 2020, 11,
     e01493. DOI: 10.1002/wcms.1493
   
   for GFN2-xTB:
   * C. Bannwarth, S. Ehlert and S. Grimme., J. Chem. Theory Comput., 2019,
     15, 1652-1671. DOI: 10.1021/acs.jctc.8b01176
   for GFN1-xTB:
   * S. Grimme, C. Bannwarth, P. Shushkov, J. Chem. Theory Comput., 2017,
     13, 1989-2009. DOI: 10.1021/acs.jctc.7b00118
   for GFN0-xTB:
   * P. Pracht, E. Caldeweyher, S. Ehlert, S. Grimme, ChemRxiv, 2019, preprint.
     DOI: 10.26434/chemrxiv.8326202.v1
   for GFN-FF:
   * S. Spicher and S. Grimme, Angew. Chem. Int. Ed., 2020, 59, 15665-15673.
     DOI: 10.1002/anie.202004239
   
   for ALPB and GBSA implicit solvation:
   * S. Ehlert, M. Stahn, S. Spicher, S. Grimme, J. Chem. Theory Comput.,
     2021, 17, 4250-4261. DOI: 10.1021/acs.jctc.1c00471
   
   for ddCOSMO and CPCM-X implicit solvation:
   * M. Stahn, S. Ehlert, S. Grimme, J. Phys. Chem. A,
     2023, XX, XXXX-XXXX. DOI: 10.1021/acs.jpca.3c04382
   
   for DFT-D4:
   * E. Caldeweyher, C. Bannwarth and S. Grimme, J. Chem. Phys., 2017,
     147, 034112. DOI: 10.1063/1.4993215
   * E. Caldeweyher, S. Ehlert, A. Hansen, H. Neugebauer, S. Spicher,
     C. Bannwarth and S. Grimme, J. Chem. Phys., 2019, 150, 154122.
     DOI: 10.1063/1.5090222
   * E. Caldeweyher, J.-M. Mewes, S. Ehlert and S. Grimme, Phys. Chem. Chem. Phys.
     2020, 22, 8499-8512. DOI: 10.1039/D0CP00502A
   
   for sTDA-xTB:
   * S. Grimme and C. Bannwarth, J. Chem. Phys., 2016, 145, 054103.
     DOI: 10.1063/1.4959605
   
   in the mass-spec context:
   * V. Asgeirsson, C. Bauer and S. Grimme, Chem. Sci., 2017, 8, 4879.
     DOI: 10.1039/c7sc00601b
   * J. Koopman and S. Grimme, ACS Omega 2019, 4, 12, 15120-15133.
     DOI: 10.1021/acsomega.9b02011
   
   for metadynamics refer to:
   * S. Grimme, J. Chem. Theory Comput., 2019, 155, 2847-2862
     DOI: 10.1021/acs.jctc.9b00143
   
   for SPH calculations refer to:
   * S. Spicher and S. Grimme, J. Chem. Theory Comput., 2021, 17, 1701-1714
     DOI: 10.1021/acs.jctc.0c01306
   
   for ONIOM refer to:
   * C. Plett, A. Katbashev, S. Ehlert, S. Grimme, M. Bursch,
     Phys. Chem. Chem. Phys., 2023, 25, 17860-17868. DOI: 10.1039/D3CP02178E
   
   for DIPRO refer to:
   * J. Kohn, N. Gildemeister, S. Grimme, D. Fazzi, A. Hansen,
     J. Chem. Phys., 2023, just accepted.
   
   for PTB refer to:
   * S. Grimme, M. Mueller, A. Hansen, J. Chem. Phys., 2023, 158, 124111.
     DOI: 10.1063/5.0137838
   
   with help from (in alphabetical order)
   P. Atkinson, C. Bannwarth, F. Bohle, G. Brandenburg, E. Caldeweyher
   M. Checinski, S. Dohm, S. Ehlert, S. Ehrlich, I. Gerasimov, C. Hölzer
   A. Katbashev, J. Kohn, J. Koopman, C. Lavigne, S. Lehtola, F. März, M. Müller,
   F. Musil, H. Neugebauer, J. Pisarek, C. Plett, P. Pracht, F. Pultar,
   J. Seibert, P. Shushkov, S. Spicher, M. Stahn, M. Steiner, T. Strunk,
   J. Stückrath, T. Rose, and J. Unsleber
   
 * started run on 2025/07/16 at 15:48:04.134     
   ID    Z sym.   atoms
    1    1 H      1-13, 38-41, 45-47
    2    7 N      14, 33, 37
    3    6 C      15-17, 19-24, 26-32, 36, 42, 44
    4    8 O      18, 25, 34, 35, 43

           -------------------------------------------------
          |                Calculation Setup                |
           -------------------------------------------------

          program call               : /home/esp/bin/orca_6_1_0/otool_xtb /home/esp/scriptDevelopment/drFrankenstein/11_PCY_CHARMM/04_torsion_scanning/torsion_NH1-CT1-CG321-CG2R61/scans_PCY_conformer_21/PCY_conformer_21_opt/orca_opt_XTB.xyz --grad -c 0 -u 0 -P 1 --namespace /home/esp/scriptDevelopment/drFrankenstein/11_PCY_CHARMM/04_torsion_scanning/torsion_NH1-CT1-CG321-CG2R61/scans_PCY_conformer_21/PCY_conformer_21_opt/orca_opt --input /home/esp/scriptDevelopment/drFrankenstein/11_PCY_CHARMM/04_torsion_scanning/torsion_NH1-CT1-CG321-CG2R61/scans_PCY_conformer_21/PCY_conformer_21_opt/orca_opt_XTB.input.tmp --alpb WATER --acc 0.200000
          calculation namespace      : /home/esp/scriptDevelopment/drFrankenstein/11_PCY_CHARMM/04_torsion_scanning/torsion_NH1-CT1-CG321-CG2R61/scans_PCY_conformer_21/PCY_conformer_21_opt/orca_opt
          coordinate file            : /home/esp/scriptDevelopment/drFrankenstein/11_PCY_CHARMM/04_torsion_scanning/torsion_NH1-CT1-CG321-CG2R61/scans_PCY_conformer_21/PCY_conformer_21_opt/orca_opt_XTB.xyz
          omp threads                :                     1


           -------------------------------------------------
          |                 G F N 2 - x T B                 |
           -------------------------------------------------

        Reference                      10.1021/acs.jctc.8b01176
      * Hamiltonian:
        H0-scaling (s, p, d)           1.850000    2.230000    2.230000
        zeta-weighting                 0.500000
      * Dispersion:
        s8                             2.700000
        a1                             0.520000
        a2                             5.000000
        s9                             5.000000
      * Repulsion:
        kExp                           1.500000    1.000000
        rExp                           1.000000
      * Coulomb:
        alpha                          2.000000
        third order                    shell-resolved
        anisotropic                    true
        a3                             3.000000
        a5                             4.000000
        cn-shift                       1.200000
        cn-exp                         4.000000
        max-rad                        5.000000

      * Solvation model:               ALPB
        Solvent                        WATER
        Parameter file                 internal GFN2-xTB/ALPB
        Dielectric constant                8.0200E+01
        Reference state                gsolv [1 M gas/solution]
        Free energy shift                  1.0808E-03 Eh       6.7819E-01 kcal/mol
        Temperature                        2.9815E+02 K
        Density                            1.0000E+00 kg/L
        Solvent mass                       1.8000E+01 g/mol
        Interaction kernel             P16
        Born radius scaling (c1)           1.4744E+00
        Born radii integrator          GBOBC
        Born offset                        0.0000E+00 a0       0.0000E+00 AA
        H-bond correction              true
        Ion screening                  false
        Surface tension                    1.0000E-05 Eh       1.5569E+01 dyn/cm
        Grid points                               230 per atom

          ...................................................
          :                      SETUP                      :
          :.................................................:
          :  # basis functions                 128          :
          :  # atomic orbitals                 128          :
          :  # shells                           74          :
          :  # electrons                       141          :
          :  max. iterations                   250          :
          :  Hamiltonian                  GFN2-xTB          :
          :  restarted?                      false          :
          :  GBSA solvation                   true          :
          :  PC potential                    false          :
          :  electronic temp.          300.0000000     K    :
          :  accuracy                    0.2000000          :
          :  -> integral cutoff          0.3198970E+02      :
          :  -> integral neglect         0.2000000E-08      :
          :  -> SCF convergence          0.2000000E-06 Eh   :
          :  -> wf. convergence          0.2000000E-04 e    :
          :  Broyden damping             0.4000000          :
          :  net charge                          0          :
          :  unpaired electrons                  0          :
          ...................................................

 iter      E             dE          RMSdq      gap      omega  full diag
   1    -80.7300060 -0.807300E+02  0.501E+00    0.98       0.0  T
   2    -80.9352549 -0.205249E+00  0.262E+00    0.24       1.0  T
   3    -80.9401730 -0.491812E-02  0.122E+00    0.18       1.0  T
   4    -80.8240920  0.116081E+00  0.158E+00    0.23       1.0  T
   5    -80.9426727 -0.118581E+00  0.349E-01    0.44       1.0  T
   6    -80.9455605 -0.288780E-02  0.192E-01    0.29       1.0  T
   7    -80.9456897 -0.129258E-03  0.164E-01    0.25       1.0  T
   8    -80.9466761 -0.986386E-03  0.509E-02    0.14       1.0  T
   9    -80.9466880 -0.119519E-04  0.421E-02    0.11       1.0  T
  10    -80.9467670 -0.789486E-04  0.164E-02    0.13       1.0  T
  11    -80.9467791 -0.121453E-04  0.280E-03    0.12       5.2  T
  12    -80.9467792 -0.444390E-07  0.189E-03    0.12       7.7  T
  13    -80.9467792 -0.780145E-08  0.172E-03    0.12       8.5  T
  14    -80.9467793 -0.121559E-06  0.587E-04    0.12      24.9  T
  15    -80.9467793 -0.776905E-08  0.422E-04    0.12      34.6  T
  16    -80.9467793 -0.833008E-08  0.449E-05    0.12     324.6  T
  17    -80.9467793  0.812719E-10  0.566E-05    0.12     257.6  T

   *** convergence criteria satisfied after 17 iterations ***

         #    Occupation            Energy/Eh            Energy/eV
      -------------------------------------------------------------
         1        2.0000           -0.7815353             -21.2667
       ...           ...                  ...                  ...
        65        2.0000           -0.4241771             -11.5424
        66        2.0000           -0.4174814             -11.3602
        67        2.0000           -0.4128226             -11.2335
        68        2.0000           -0.4054752             -11.0335
        69        2.0000           -0.4018548             -10.9350
        70        2.0000           -0.3831980             -10.4273
        71        0.9148           -0.3295391              -8.9672 (HOMO)
        72        0.0852           -0.3250289              -8.8445 (LUMO)
        73                         -0.2504723              -6.8157
        74                         -0.2413388              -6.5672
        75                         -0.2311835              -6.2908
        76                         -0.2241577              -6.0996
       ...                                ...                  ...
       128                          0.6594680              17.9450
      -------------------------------------------------------------
                  HL-Gap            0.0045101 Eh            0.1227 eV
             Fermi-level           -0.3418263 Eh           -9.3016 eV

 SCC (total)                   0 d,  0 h,  0 min,  0.073 sec
 SCC setup                      ...        0 min,  0.001 sec (  1.749%)
 Dispersion                     ...        0 min,  0.000 sec (  0.568%)
 classical contributions        ...        0 min,  0.000 sec (  0.129%)
 integral evaluation            ...        0 min,  0.006 sec (  7.645%)
 iterations                     ...        0 min,  0.046 sec ( 62.040%)
 molecular gradient             ...        0 min,  0.020 sec ( 26.996%)
 printout                       ...        0 min,  0.001 sec (  0.846%)

         :::::::::::::::::::::::::::::::::::::::::::::::::::::
         ::                     SUMMARY                     ::
         :::::::::::::::::::::::::::::::::::::::::::::::::::::
         :: total energy             -79.898297515225 Eh    ::
         :: total w/o Gsasa/hb       -79.896644473199 Eh    ::
         :: gradient norm              0.044301609050 Eh/a0 ::
         :: HOMO-LUMO gap              0.122726735670 eV    ::
         ::.................................................::
         :: SCC energy               -80.945448968710 Eh    ::
         :: -> isotropic ES            0.180440127596 Eh    ::
         :: -> anisotropic ES          0.000738639936 Eh    ::
         :: -> anisotropic XC          0.021516783180 Eh    ::
         :: -> dispersion             -0.052121052827 Eh    ::
         :: -> Gsolv                  -0.031893961632 Eh    ::
         ::    -> Gelec               -0.030240919606 Eh    ::
         ::    -> Gsasa                0.004091210606 Eh    ::
         ::    -> Ghb                 -0.006825012330 Eh    ::
         ::    -> Gshift               0.001080759698 Eh    ::
         :: repulsion energy           1.047151453484 Eh    ::
         :: add. restraining           0.000000000000 Eh    ::
         :: total charge              -0.000000000000 e     ::
         :::::::::::::::::::::::::::::::::::::::::::::::::::::


Property printout bound to 'properties.out'

           -------------------------------------------------
          | TOTAL ENERGY              -79.898297515225 Eh   |
          | GRADIENT NORM               0.044301609050 Eh/α |
          | HOMO-LUMO GAP               0.122726735670 eV   |
           -------------------------------------------------

------------------------------------------------------------------------
 * finished run on 2025/07/16 at 15:48:04.234     
------------------------------------------------------------------------
 total:
 * wall-time:     0 d,  0 h,  0 min,  0.100 sec
 *  cpu-time:     0 d,  0 h,  0 min,  0.067 sec
 * ratio c/w:     0.673 speedup
 SCF:
 * wall-time:     0 d,  0 h,  0 min,  0.078 sec
 *  cpu-time:     0 d,  0 h,  0 min,  0.057 sec
 * ratio c/w:     0.724 speedup


-------------------------   --------------------
FINAL SINGLE POINT ENERGY       -79.898297515230
-------------------------   --------------------


-------------
DIPOLE MOMENT
-------------
                                X             Y             Z
Total Dipole Moment    :     -1.63700       1.95600       0.16500
                        -----------------------------------------
Magnitude (a.u.)       :      2.55596
Magnitude (Debye)      :      6.49673


------------------
CARTESIAN GRADIENT
------------------

   1   H   :   -0.000277017   -0.000453418   -0.000218795
   2   H   :   -0.000018243    0.000374361   -0.000078376
   3   H   :    0.000098218    0.000181964    0.000035474
   4   H   :    0.000299250    0.000388382   -0.000143316
   5   H   :   -0.000190055   -0.000325671    0.000610611
   6   H   :   -0.000065053    0.000089593   -0.000154941
   7   H   :    0.000108608    0.000045049   -0.000168361
   8   H   :   -0.000263558   -0.000709928   -0.000541467
   9   H   :   -0.000734648    0.000256028    0.000048255
  10   H   :   -0.000225419   -0.000382708   -0.000607929
  11   H   :   -0.000263532   -0.000128518    0.000110597
  12   H   :   -0.000943465   -0.001157153    0.000718154
  13   H   :   -0.000335295    0.000548085    0.000059524
  14   N   :   -0.000964879    0.002327803    0.000181870
  15   C   :   -0.002139359   -0.001297983    0.001022576
  16   C   :   -0.004645751    0.017253001   -0.003101173
  17   C   :    0.001005041    0.000311959    0.000514878
  18   O   :    0.007652942   -0.011089402    0.000251390
  19   C   :    0.000009634   -0.000067721   -0.000593894
  20   C   :   -0.000065499   -0.000164835    0.000370521
  21   C   :   -0.000309686   -0.000327657   -0.000422277
  22   C   :    0.000052516   -0.000377799    0.001487200
  23   C   :   -0.000220013   -0.000083992    0.000283663
  24   C   :    0.000283663    0.000564988    0.000880340
  25   O   :   -0.001315866   -0.001031577   -0.000463257
  26   C   :    0.001728486    0.001893197   -0.001904890
  27   C   :   -0.000980677   -0.001312583    0.000387808
  28   C   :   -0.000716621    0.000024002   -0.000077085
  29   C   :    0.000602530   -0.000886342   -0.000070758
  30   C   :    0.000947519    0.000220794    0.000067543
  31   C   :    0.002015880    0.000212796   -0.000439076
  32   C   :   -0.002088298    0.005232383    0.000633170
  33   N   :    0.006096468   -0.021620452   -0.002146235
  34   O   :   -0.009384265    0.005494884    0.004348926
  35   O   :    0.004897095    0.012226853   -0.002531673
  36   C   :    0.002345502    0.000850993   -0.001014717
  37   N   :   -0.002164850   -0.006092703    0.002328690
  38   H   :   -0.000266809    0.000560558    0.000244663
  39   H   :   -0.000513391   -0.000173111    0.001123834
  40   H   :    0.000494251    0.000248428   -0.000392349
  41   H   :   -0.000979080   -0.000722337   -0.000190324
  42   C   :    0.012915690   -0.011623875   -0.001857550
  43   O   :   -0.010681743    0.007615335    0.002018795
  44   C   :   -0.000352909    0.001552718   -0.000342569
  45   H   :    0.000018879    0.000254189   -0.000080165
  46   H   :   -0.000451607    0.000486582   -0.000641478
  47   H   :   -0.000014582    0.000814840    0.000454175

Difference to translation invariance:
           :   -0.0000000000   -0.0000000000   -0.0000000000

Difference to rotation invariance:
           :    0.0000528470    0.0003865129   -0.0000571590

Norm of the Cartesian gradient     ...    0.0443016090
RMS gradient                       ...    0.0037308685
MAX gradient                       ...    0.0216204517
------------------------------------------------------------------------------
                         ORCA GEOMETRY RELAXATION STEP
------------------------------------------------------------------------------

Reading the OPT-File                    .... done
Getting information on internals        .... done
Copying old internal coords+grads       .... done
Making the new internal coordinates     .... (2022 redundants) done
Validating the new internal coordinates .... (2022 redundants) done
Calculating the B-matrix                .... done
Calculating the G,G- and P matrices     .... done
Transforming gradient to internals      .... done
Projecting the internal gradient        .... done
Number of atoms                         ....  47
Number of internal coordinates          .... 227
Current Energy                          ....   -79.898297515 Eh
Current gradient norm                   ....     0.044301609 Eh/bohr
Maximum allowed component of the step   ....  0.300
Current trust radius                    ....  0.300
Evaluating the initial hessian          ....  (Almloef) done
Projecting the Hessian                  .... done
Forming the augmented Hessian           .... done
Diagonalizing the augmented Hessian     .... done
Last element of RFO vector              ....  0.995767191
Lowest eigenvalues of augmented Hessian:
 -0.001172201  0.010112198  0.011880836  0.012049486  0.012241982
Length of the computed step             ....  0.092302072
The final length of the internal step   ....  0.092302072
Converting the step to Cartesian space:
 Initial RMS(Int)=    0.0061263037
Transforming coordinates:
 Iter   0:  RMS(Cart)=    0.0814051223 RMS(Int)=    0.4158393043
done
Storing new coordinates                 .... done

                                .--------------------.
          ----------------------|Geometry convergence|-------------------------
          Item                value                   Tolerance       Converged
          ---------------------------------------------------------------------
          RMS gradient        0.0018932452            0.0001000000      NO
          MAX gradient        0.0133926389            0.0003000000      NO
          RMS step            0.0061263037            0.0020000000      NO
          MAX step            0.0239153468            0.0040000000      NO
          -------------------------------------------------------------------------
          ........................................................
          Max(Bonds)      0.0127      Max(Angles)    0.76
          Max(Dihed)        1.34      Max(Improp)    0.00
          ---------------------------------------------------------------------

The optimization has not yet converged - more geometry cycles are needed


    ---------------------------------------------------------------------------
                         Redundant Internal Coordinates
                            (Angstroem and degrees)

        Definition                    Value    dE/dq     Step     New-Value
    ----------------------------------------------------------------------------
     1. B(N  13,H  11)                1.0267 -0.000329  0.0001    1.0268   
     2. B(C  14,N  13)                1.3613  0.000630 -0.0002    1.3611   
     3. B(C  15,C  14)                1.4538 -0.001291  0.0019    1.4556   
     4. B(C  16,H   3)                1.0915  0.000425 -0.0006    1.0909   
     5. B(C  16,C  14)                1.4901  0.000243 -0.0003    1.4898   
     6. B(C  16,H   7)                1.0949  0.000925 -0.0014    1.0936   
     7. B(O  17,C  15)                1.2370 -0.013393  0.0072    1.2442   
     8. B(O  17,H  11)                1.9804 -0.000930  0.0127    1.9930   
     9. B(C  18,C  16)                1.5101 -0.000456  0.0008    1.5109   
    10. B(C  19,C  18)                1.3914 -0.000133  0.0001    1.3915   
    11. B(C  19,H   5)                1.0796  0.000104 -0.0001    1.0795   
    12. B(C  20,C  19)                1.3773 -0.000248  0.0002    1.3776   
    13. B(C  20,H   2)                1.0785  0.000173 -0.0002    1.0783   
    14. B(C  21,C  20)                1.3955 -0.000149  0.0001    1.3956   
    15. B(C  22,C  21)                1.3894 -0.000019  0.0001    1.3895   
    16. B(C  22,H   6)                1.0780 -0.000110  0.0002    1.0782   
    17. B(C  23,C  22)                1.3852 -0.000072  0.0001    1.3853   
    18. B(C  23,C  18)                1.3876 -0.000188  0.0002    1.3878   
    19. B(C  23,H   9)                1.0819  0.000739 -0.0011    1.0809   
    20. B(O  24,C  21)                1.3654 -0.001604  0.0015    1.3669   
    21. B(C  25,O  24)                1.4117 -0.002360  0.0025    1.4142   
    22. B(C  25,H   4)                1.0965  0.000572 -0.0009    1.0956   
    23. B(C  25,H   0)                1.0936  0.000345 -0.0005    1.0931   
    24. B(C  26,C  25)                1.5145 -0.000056  0.0001    1.5146   
    25. B(C  27,C  26)                1.3914  0.000408 -0.0003    1.3910   
    26. B(C  27,H   1)                1.0795  0.000274 -0.0004    1.0791   
    27. B(C  28,C  27)                1.3826 -0.000751  0.0006    1.3832   
    28. B(C  28,H  12)                1.0794  0.000650 -0.0009    1.0785   
    29. B(C  29,C  28)                1.3866 -0.000618  0.0005    1.3870   
    30. B(C  29,H   8)                1.0785  0.000748 -0.0011    1.0775   
    31. B(C  30,C  29)                1.3794  0.000187 -0.0001    1.3793   
    32. B(C  30,H  10)                1.0796  0.000233 -0.0003    1.0793   
    33. B(C  31,C  30)                1.3932 -0.001419  0.0012    1.3944   
    34. B(C  31,C  26)                1.3977 -0.001762  0.0016    1.3992   
    35. B(N  32,C  31)                1.4413  0.004226 -0.0048    1.4365   
    36. B(O  33,N  32)                1.2176 -0.010871  0.0061    1.2237   
    37. B(O  34,N  32)                1.2129 -0.012858  0.0071    1.2200   
    38. B(N  36,C  35)                1.4393 -0.001519  0.0016    1.4409   
    39. B(N  36,C  15)                1.3586  0.005632 -0.0048    1.3539   
    40. B(H  37,N  36)                1.0073 -0.000574  0.0007    1.0080   
    41. B(H  38,H  12)                2.9377 -0.000179  0.0014    2.9392   
    42. B(H  38,C  35)                1.0937  0.000894 -0.0015    1.0921   
    43. B(H  39,C  35)                1.0889  0.000056 -0.0001    1.0888   
    44. B(H  40,C  35)                1.0916  0.001160 -0.0017    1.0898   
    45. B(C  41,N  13)                1.3729  0.001124 -0.0010    1.3719   
    46. B(O  42,C  41)                1.2141 -0.013272  0.0066    1.2207   
    47. B(C  43,C  41)                1.5093  0.003194 -0.0042    1.5051   
    48. B(H  44,C  43)                1.0860  0.000120 -0.0002    1.0858   
    49. B(H  45,C  43)                1.0882  0.000827 -0.0012    1.0870   
    50. B(H  46,C  43)                1.0881  0.000828 -0.0012    1.0869   
    51. A(H  11,N  13,C  41)          118.88  0.001299   -0.26    118.62   
    52. A(C  14,N  13,C  41)          131.82 -0.001039    0.10    131.92   
    53. A(H  11,N  13,C  14)          109.30 -0.000260    0.16    109.46   
    54. A(N  13,C  14,C  15)          111.32  0.000033    0.20    111.52   
    55. A(N  13,C  14,C  16)          123.33 -0.000745    0.01    123.33   
    56. A(C  15,C  14,C  16)          125.28  0.000711   -0.19    125.09   
    57. A(O  17,C  15,N  36)          122.61 -0.000064   -0.05    122.56   
    58. A(C  14,C  15,O  17)          119.73  0.000386    0.07    119.80   
    59. A(C  14,C  15,N  36)          117.63 -0.000320   -0.03    117.60   
    60. A(H   3,C  16,H   7)          108.12 -0.000031   -0.06    108.06   
    61. A(H   3,C  16,C  14)          108.42  0.000188   -0.06    108.35   
    62. A(C  14,C  16,C  18)          110.28 -0.000657    0.20    110.48   
    63. A(H   3,C  16,C  18)          110.24  0.000308   -0.14    110.10   
    64. A(H   7,C  16,C  14)          110.11  0.000059    0.02    110.13   
    65. A(H   7,C  16,C  18)          109.64  0.000147    0.04    109.67   
    66. A(C  16,C  18,C  23)          121.64  0.000302   -0.01    121.62   
    67. A(C  19,C  18,C  23)          118.47 -0.000097    0.01    118.48   
    68. A(C  16,C  18,C  19)          119.85 -0.000209    0.03    119.87   
    69. A(C  18,C  19,C  20)          120.73  0.000089   -0.01    120.73   
    70. A(H   5,C  19,C  18)          119.45 -0.000192    0.03    119.48   
    71. A(H   5,C  19,C  20)          119.81  0.000103   -0.02    119.79   
    72. A(H   2,C  20,C  21)          118.46  0.000096   -0.02    118.45   
    73. A(C  19,C  20,C  21)          120.43  0.000047   -0.00    120.43   
    74. A(H   2,C  20,C  19)          121.10 -0.000142    0.02    121.12   
    75. A(C  22,C  21,O  24)          124.85 -0.000378    0.07    124.92   
    76. A(C  20,C  21,O  24)          115.89  0.000454   -0.06    115.83   
    77. A(C  20,C  21,C  22)          119.26 -0.000075   -0.00    119.26   
    78. A(C  21,C  22,C  23)          119.66 -0.000031    0.01    119.67   
    79. A(H   6,C  22,C  23)          118.83 -0.000119    0.02    118.85   
    80. A(H   6,C  22,C  21)          121.51  0.000147   -0.02    121.48   
    81. A(C  18,C  23,C  22)          121.37  0.000074   -0.01    121.36   
    82. A(H   9,C  23,C  22)          118.68  0.000105   -0.02    118.66   
    83. A(H   9,C  23,C  18)          119.94 -0.000179    0.03    119.97   
    84. A(C  21,O  24,C  25)          117.64 -0.001418    0.25    117.89   
    85. A(H   0,C  25,H   4)          108.45  0.000051   -0.03    108.42   
    86. A(O  24,C  25,C  26)          111.83 -0.000638    0.16    111.99   
    87. A(H   4,C  25,C  26)          108.71 -0.000625    0.09    108.81   
    88. A(H   0,C  25,C  26)          112.16  0.000205    0.00    112.16   
    89. A(H   4,C  25,O  24)          104.47  0.000649   -0.12    104.35   
    90. A(H   0,C  25,O  24)          110.86  0.000381   -0.12    110.74   
    91. A(C  27,C  26,C  31)          117.45  0.000241   -0.03    117.42   
    92. A(C  25,C  26,C  31)          124.64 -0.000417    0.06    124.70   
    93. A(C  25,C  26,C  27)          117.84  0.000175   -0.04    117.81   
    94. A(C  26,C  27,C  28)          121.70 -0.000174    0.02    121.72   
    95. A(H   1,C  27,C  28)          119.98 -0.000153    0.03    120.00   
    96. A(H   1,C  27,C  26)          118.32  0.000327   -0.05    118.27   
    97. A(C  27,C  28,C  29)          120.13 -0.000234    0.02    120.16   
    98. A(H  12,C  28,C  29)          120.16  0.000049    0.00    120.16   
    99. A(H  12,C  28,C  27)          119.70  0.000184   -0.02    119.68   
   100. A(C  28,C  29,C  30)          119.34 -0.000035    0.00    119.34   
   101. A(H   8,C  29,C  30)          120.10  0.000220   -0.03    120.07   
   102. A(H   8,C  29,C  28)          120.56 -0.000185    0.03    120.60   
   103. A(C  29,C  30,C  31)          120.37  0.000112   -0.01    120.35   
   104. A(H  10,C  30,C  31)          118.42  0.000094   -0.02    118.40   
   105. A(H  10,C  30,C  29)          121.21 -0.000204    0.03    121.24   
   106. A(C  30,C  31,N  32)          115.86  0.000681   -0.10    115.76   
   107. A(C  26,C  31,N  32)          123.15 -0.000776    0.11    123.26   
   108. A(C  26,C  31,C  30)          120.98  0.000094   -0.01    120.97   
   109. A(O  33,N  32,O  34)          124.55  0.006243   -0.76    123.80   
   110. A(C  31,N  32,O  34)          117.25 -0.002450    0.28    117.53   
   111. A(C  31,N  32,O  33)          118.16 -0.003791    0.46    118.62   
   112. A(N  36,C  35,H  38)          110.99  0.001060   -0.21    110.79   
   113. A(H  39,C  35,H  40)          109.46 -0.000002    0.03    109.49   
   114. A(H  38,C  35,H  40)          108.95 -0.000413    0.03    108.98   
   115. A(N  36,C  35,H  40)          110.36  0.000638   -0.12    110.24   
   116. A(H  38,C  35,H  39)          109.51  0.000063    0.01    109.52   
   117. A(N  36,C  35,H  39)          107.54 -0.001359    0.26    107.80   
   118. A(C  35,N  36,H  37)          117.50  0.000909   -0.11    117.39   
   119. A(C  15,N  36,H  37)          118.98  0.000881   -0.10    118.88   
   120. A(C  15,N  36,C  35)          121.82 -0.001875    0.29    122.11   
   121. A(O  42,C  41,C  43)          124.13  0.000594   -0.08    124.05   
   122. A(N  13,C  41,C  43)          112.02 -0.000865    0.12    112.14   
   123. A(N  13,C  41,O  42)          123.85  0.000271   -0.04    123.81   
   124. A(H  45,C  43,H  46)          108.52 -0.000298    0.03    108.56   
   125. A(H  44,C  43,H  46)          109.36 -0.000409    0.09    109.45   
   126. A(C  41,C  43,H  46)          110.27  0.000486   -0.09    110.17   
   127. A(H  44,C  43,H  45)          109.30 -0.000365    0.08    109.38   
   128. A(C  41,C  43,H  45)          110.07  0.000476   -0.09    109.98   
   129. A(C  41,C  43,H  44)          109.30  0.000096   -0.01    109.29   
   130. D(C  16,C  14,N  13,C  41)      1.58  0.000110   -0.38      1.20   
   131. D(C  15,C  14,N  13,C  41)    178.51  0.000094    0.01    178.52   
   132. D(C  16,C  14,N  13,H  11)   -177.99  0.000028   -0.24   -178.23   
   133. D(C  15,C  14,N  13,H  11)     -1.07  0.000012    0.15     -0.92   
   134. D(N  36,C  15,C  14,N  13)    178.88  0.000201   -1.12    177.77   
   135. D(O  17,C  15,C  14,C  16)    177.51  0.000072   -0.29    177.23   
   136. D(N  36,C  15,C  14,C  16)     -4.26  0.000131   -0.72     -4.98   
   137. D(O  17,C  15,C  14,N  13)      0.66  0.000143   -0.69     -0.03   
   138. D(H   7,C  16,C  14,C  15)     66.03 -0.000053   -0.83     65.20   
   139. D(C  18,C  16,C  14,N  13)    121.40  0.000104   -0.56    120.84   
   140. D(H   3,C  16,C  14,C  15)   -175.87  0.000055   -0.92   -176.80   
   141. D(H   3,C  16,C  14,N  13)      0.62  0.000008   -0.47      0.15   
   142. D(H   7,C  16,C  14,N  13)   -117.48 -0.000100   -0.37   -117.85   
   143. D(C  19,C  18,C  16,H   3)     62.27 -0.000276    0.57     62.85   
   144. D(C  19,C  18,C  16,H   7)   -178.81 -0.000035    0.44   -178.37   
   145. D(C  19,C  18,C  16,C  14)    -57.41 -0.000288    0.61    -56.80   
   146. D(C  23,C  18,C  16,H   7)     -1.30 -0.000157    1.03     -0.27   
   147. D(C  23,C  18,C  16,H   3)   -120.22 -0.000398    1.17   -119.05   
   148. D(C  20,C  19,C  18,C  16)    175.67  0.000105    0.36    176.03   
   149. D(H   5,C  19,C  18,C  23)    178.42  0.000072   -0.21    178.21   
   150. D(C  20,C  19,C  18,C  23)     -1.92  0.000212   -0.22     -2.14   
   151. D(H   5,C  19,C  18,C  16)     -3.99 -0.000036    0.37     -3.62   
   152. D(C  21,C  20,C  19,C  18)     -0.35 -0.000164    0.27     -0.08   
   153. D(C  21,C  20,C  19,H   5)    179.31 -0.000024    0.26    179.57   
   154. D(H   2,C  20,C  19,C  18)   -179.69 -0.000196    0.11   -179.57   
   155. D(H   2,C  20,C  19,H   5)     -0.02 -0.000056    0.10      0.08   
   156. D(O  24,C  21,C  20,C  19)   -177.09 -0.000244   -0.06   -177.16   
   157. D(O  24,C  21,C  20,H   2)      2.26 -0.000214    0.09      2.35   
   158. D(C  22,C  21,C  20,C  19)      2.37 -0.000036   -0.08      2.29   
   159. D(C  22,C  21,C  20,H   2)   -178.28 -0.000006    0.08   -178.20   
   160. D(H   6,C  22,C  21,C  20)    177.26 -0.000089    0.08    177.34   
   161. D(C  23,C  22,C  21,O  24)    177.33  0.000415   -0.18    177.15   
   162. D(C  23,C  22,C  21,C  20)     -2.08  0.000182   -0.16     -2.25   
   163. D(H   6,C  22,C  21,O  24)     -3.33  0.000143    0.07     -3.26   
   164. D(C  18,C  23,C  22,C  21)     -0.21 -0.000133    0.21      0.00   
   165. D(C  18,C  23,C  22,H   6)   -179.57  0.000130   -0.02   -179.59   
   166. D(H   9,C  23,C  22,C  21)    179.45 -0.000133    0.00    179.46   
   167. D(H   9,C  23,C  22,H   6)      0.09  0.000130   -0.23     -0.14   
   168. D(C  22,C  23,C  18,C  19)      2.21 -0.000065   -0.02      2.18   
   169. D(C  22,C  23,C  18,C  16)   -175.33  0.000057   -0.61   -175.95   
   170. D(H   9,C  23,C  18,C  19)   -177.45 -0.000066    0.19   -177.26   
   171. D(H   9,C  23,C  18,C  16)      5.01  0.000056   -0.40      4.61   
   172. D(C  25,O  24,C  21,C  22)    -11.73 -0.000845    1.34    -10.39   
   173. D(C  25,O  24,C  21,C  20)    167.71 -0.000622    1.32    169.03   
   174. D(C  26,C  25,O  24,C  21)    -63.08 -0.001101    1.19    -61.89   
   175. D(H   4,C  25,O  24,C  21)    179.51 -0.000421    1.07    180.58   
   176. D(H   0,C  25,O  24,C  21)     62.89 -0.001024    1.23     64.12   
   177. D(C  31,C  26,C  25,H   4)    -96.16 -0.000015    0.14    -96.02   
   178. D(C  31,C  26,C  25,H   0)     23.76 -0.000239    0.17     23.92   
   179. D(C  27,C  26,C  25,O  24)    -33.89 -0.000097   -0.10    -33.99   
   180. D(C  27,C  26,C  25,H   4)     80.93 -0.000040   -0.09     80.84   
   181. D(C  27,C  26,C  25,H   0)   -159.15 -0.000264   -0.07   -159.22   
   182. D(C  28,C  27,C  26,C  31)     -0.82  0.000104   -0.13     -0.95   
   183. D(C  28,C  27,C  26,C  25)   -178.12  0.000146    0.09   -178.03   
   184. D(H   1,C  27,C  26,C  31)    179.28  0.000023   -0.17    179.11   
   185. D(H   1,C  27,C  26,C  25)      1.98  0.000066    0.04      2.02   
   186. D(C  29,C  28,C  27,C  26)      1.48 -0.000123    0.11      1.58   
   187. D(C  29,C  28,C  27,H   1)   -178.63 -0.000041    0.15   -178.47   
   188. D(H  12,C  28,C  27,C  26)   -179.30 -0.000181    0.12   -179.18   
   189. D(H  12,C  28,C  27,H   1)      0.60 -0.000099    0.17      0.76   
   190. D(C  30,C  29,C  28,H  12)   -179.76  0.000068    0.03   -179.74   
   191. D(H   8,C  29,C  28,C  27)    179.38 -0.000044    0.09    179.47   
   192. D(H   8,C  29,C  28,H  12)      0.16  0.000013    0.08      0.23   
   193. D(C  30,C  29,C  28,C  27)     -0.54  0.000010    0.04     -0.50   
   194. D(C  31,C  30,C  29,C  28)     -1.00  0.000099   -0.15     -1.15   
   195. D(C  31,C  30,C  29,H   8)    179.08  0.000153   -0.20    178.88   
   196. D(H  10,C  30,C  29,C  28)    179.80 -0.000072    0.10    179.90   
   197. D(H  10,C  30,C  29,H   8)     -0.12 -0.000017    0.05     -0.07   
   198. D(N  32,C  31,C  30,C  29)   -177.27 -0.000038   -0.04   -177.32   
   199. D(N  32,C  31,C  30,H  10)      1.95  0.000125   -0.29      1.66   
   200. D(C  26,C  31,C  30,C  29)      1.66 -0.000109    0.13      1.79   
   201. D(C  26,C  31,C  30,H  10)   -179.12  0.000055   -0.11   -179.23   
   202. D(N  32,C  31,C  26,C  27)    178.11 -0.000053    0.19    178.31   
   203. D(N  32,C  31,C  26,C  25)     -4.78 -0.000080   -0.04     -4.82   
   204. D(C  30,C  31,C  26,C  27)     -0.74  0.000005    0.01     -0.73   
   205. D(C  30,C  31,C  26,C  25)    176.36 -0.000021   -0.23    176.14   
   206. D(O  34,N  32,C  31,C  30)    -33.37 -0.000365    1.13    -32.24   
   207. D(O  34,N  32,C  31,C  26)    147.72 -0.000304    0.96    148.67   
   208. D(O  33,N  32,C  31,C  30)    144.73 -0.000185    0.59    145.32   
   209. D(O  33,N  32,C  31,C  26)    -34.18 -0.000123    0.41    -33.77   
   210. D(H  37,N  36,C  35,H  39)    173.79 -0.000100    0.19    173.99   
   211. D(H  37,N  36,C  35,H  38)     54.03  0.000052    0.14     54.17   
   212. D(C  15,N  36,C  35,H  40)    128.15 -0.000342   -0.03    128.12   
   213. D(C  15,N  36,C  35,H  39)      8.81  0.000115   -0.16      8.65   
   214. D(C  15,N  36,C  35,H  38)   -110.95  0.000267   -0.21   -111.16   
   215. D(H  37,N  36,C  15,O  17)   -172.00  0.000394   -0.73   -172.73   
   216. D(H  37,N  36,C  15,C  14)      9.83  0.000325   -0.29      9.54   
   217. D(C  35,N  36,C  15,O  17)     -7.23  0.000172   -0.38     -7.61   
   218. D(C  35,N  36,C  15,C  14)    174.60  0.000103    0.06    174.66   
   219. D(C  43,C  41,N  13,C  14)   -179.68 -0.000061    0.16   -179.52   
   220. D(C  43,C  41,N  13,H  11)     -0.14  0.000021    0.01     -0.13   
   221. D(O  42,C  41,N  13,C  14)      0.29 -0.000063    0.07      0.36   
   222. D(O  42,C  41,N  13,H  11)    179.83  0.000019   -0.07    179.75   
   223. D(H  46,C  43,C  41,N  13)     59.16  0.000159   -0.11     59.05   
   224. D(H  45,C  43,C  41,O  42)    119.50 -0.000078    0.05    119.55   
   225. D(H  45,C  43,C  41,N  13)    -60.54 -0.000081   -0.03    -60.57   
   226. D(H  44,C  43,C  41,O  42)     -0.55  0.000019    0.01     -0.54   
   227. D(H  44,C  43,C  41,N  13)    179.41  0.000016   -0.07    179.34   
    ----------------------------------------------------------------------------

Geometry step timings:
Preparation and reading OPT file:      0.000 s ( 0.255 %)
Internal coordinates            :      0.000 s ( 0.239 %)
B/P matrices and projection     :      0.005 s (38.866 %)
Hessian update/contruction      :      0.002 s (16.773 %)
Making the step                 :      0.004 s (34.294 %)
Converting the step to Cartesian:      0.001 s ( 4.349 %)
Storing new data                :      0.000 s ( 0.374 %)
Checking convergence            :      0.000 s ( 0.502 %)
Final printing                  :      0.001 s ( 4.341 %)
Total time                      :      0.013 s

Time for energy+gradient        :      0.106 s
Time for complete geometry iter :      0.120 s

         *************************************************************
         *                GEOMETRY OPTIMIZATION CYCLE   2            *
         *************************************************************
---------------------------------
CARTESIAN COORDINATES (ANGSTROEM)
---------------------------------
  H     0.520684   -2.043390    2.789410
  H    -1.503842    0.976836    3.258666
  H     1.406547    2.230475    1.770223
  H     1.189456    1.845741   -3.118151
  H     0.241790   -1.146200    4.295759
  H     1.239666    2.951204   -0.587680
  H    -0.168807   -1.595941    0.694341
  H    -0.216076    0.787441   -3.291533
  H    -5.304012   -0.854814    2.580719
  H    -0.327467   -0.882505   -1.616833
  H    -4.187358   -3.064902    2.467513
  H    -0.999682    4.679395   -3.108102
  H    -3.935353    1.173732    2.966955
  N    -0.245500    3.991497   -3.219204
  C    -0.647850    2.792348   -2.716484
  C    -1.993975    2.868148   -2.167701
  C     0.223168    1.584149   -2.684733
  O    -2.616057    3.945113   -2.202336
  C     0.404432    1.100784   -1.264802
  C     0.918811    1.961489   -0.299937
  C     1.015397    1.566314    1.016184
  C     0.596077    0.293070    1.404509
  C     0.124396   -0.589861    0.440858
  C     0.033275   -0.179622   -0.879163
  O     0.677732    0.021272    2.741573
  C     0.050818   -1.153853    3.216942
  C    -1.445815   -1.131122    2.985497
  C    -2.096566    0.095552    3.067582
  C    -3.466509    0.204123    2.910076
  C    -4.235343   -0.930285    2.695806
  C    -3.618723   -2.162341    2.631360
  C    -2.233670   -2.264482    2.756124
  N    -1.689818   -3.586453    2.614270
  O    -0.594285   -3.715907    2.084631
  O    -2.375667   -4.521969    2.992098
  C    -3.812812    1.714827   -1.008068
  N    -2.535595    1.729344   -1.675008
  H    -1.948690    0.916485   -1.570768
  H    -3.691916    1.501658    0.056264
  H    -4.264837    2.697446   -1.133227
  H    -4.460328    0.957692   -1.449928
  C     0.930891    4.394053   -3.799081
  O     1.889024    3.658057   -3.973363
  C     0.901872    5.846884   -4.191319
  H     1.855878    6.118221   -4.633192
  H     0.107674    6.020992   -4.912750
  H     0.717989    6.467316   -3.318005

----------------------------
CARTESIAN COORDINATES (A.U.)
----------------------------
  NO LB    ZA    FRAG    MASS        X           Y           Z
   0 H   1.0000    0     1.008    0.983950   -3.861447    5.271220
   1 H   1.0000    0     1.008   -2.841850    1.845953    6.157987
   2 H   1.0000    0     1.008    2.657988    4.214987    3.345236
   3 H   1.0000    0     1.008    2.247746    3.487946   -5.892452
   4 H   1.0000    0     1.008    0.456916   -2.166005    8.117807
   5 H   1.0000    0     1.008    2.342629    5.576967   -1.110554
   6 H   1.0000    0     1.008   -0.319000   -3.015891    1.312114
   7 H   1.0000    0     1.008   -0.408325    1.488047   -6.220096
   8 H   1.0000    0     1.008  -10.023130   -1.615363    4.876853
   9 H   1.0000    0     1.008   -0.618824   -1.667693   -3.055371
  10 H   1.0000    0     1.008   -7.912960   -5.791825    4.662925
  11 H   1.0000    0     1.008   -1.889125    8.842775   -5.873462
  12 H   1.0000    0     1.008   -7.436739    2.218031    5.606733
[...]
  27 C   6.0000    0    12.011   -4.426353   -0.757386    5.531197
  28 C   6.0000    0    12.011   -7.015614   -1.113543    5.474603
  29 C   6.0000    0    12.011   -8.024638   -3.520755    5.739205
  30 C   6.0000    0    12.011   -6.424991   -5.542869    6.089422
  31 C   6.0000    0    12.011   -3.805841   -5.187358    6.161547
  32 N   7.0000    0    14.007   -2.304424   -7.362550    6.573823
  33 O   8.0000    0    15.999   -0.041534   -7.121997    7.059854
  34 O   8.0000    0    15.999   -3.318082   -9.452858    6.444933
  35 C   6.0000    0    12.011   -7.462782    4.884647   -2.296158
  36 N   7.0000    0    14.007   -5.005362    4.511539   -3.411800
  37 H   1.0000    0     1.008   -4.153680    2.833570   -3.111423
  38 H   1.0000    0     1.008   -7.362617    4.694183   -0.245666
  39 H   1.0000    0     1.008   -8.094829    6.783456   -2.771954
  40 H   1.0000    0     1.008   -8.792749    3.504050   -3.044821
  41 C   6.0000    0    12.011    2.328609    8.220718   -7.496013
  42 O   8.0000    0    15.999    3.902933    6.533894   -7.677283
  43 C   6.0000    0    12.011    2.749803   10.880557   -8.389758
  44 H   1.0000    0     1.008    4.630412   11.035248   -9.195327
  45 H   1.0000    0     1.008    1.352550   11.372229   -9.813499
  46 H   1.0000    0     1.008    2.568467   12.191242   -6.818041

      -----------------------------------------------------------      
     |                   =====================                   |     
     |                           x T B                           |     
     |                   =====================                   |     
     |                         S. Grimme                         |     
     |          Mulliken Center for Theoretical Chemistry        |     
     |                    University of Bonn                     |     
      -----------------------------------------------------------      

   * xtb version 6.7.1 (edcfbbe) compiled by 'albert@albert-system' on 2024-07-22

   xtb is free software: you can redistribute it and/or modify it under
   the terms of the GNU Lesser General Public License as published by
   the Free Software Foundation, either version 3 of the License, or
   (at your option) any later version.
   
   xtb is distributed in the hope that it will be useful,
   but WITHOUT ANY WARRANTY; without even the implied warranty of
   MERCHANTABILITY or FITNESS FOR A PARTICULAR PURPOSE.  See the
   GNU Lesser General Public License for more details.
   
   Cite this work as:
   * C. Bannwarth, E. Caldeweyher, S. Ehlert, A. Hansen, P. Pracht,
     J. Seibert, S. Spicher, S. Grimme, WIREs Comput. Mol. Sci., 2020, 11,
     e01493. DOI: 10.1002/wcms.1493
   
   for GFN2-xTB:
   * C. Bannwarth, S. Ehlert and S. Grimme., J. Chem. Theory Comput., 2019,
     15, 1652-1671. DOI: 10.1021/acs.jctc.8b01176
   for GFN1-xTB:
   * S. Grimme, C. Bannwarth, P. Shushkov, J. Chem. Theory Comput., 2017,
     13, 1989-2009. DOI: 10.1021/acs.jctc.7b00118
   for GFN0-xTB:
   * P. Pracht, E. Caldeweyher, S. Ehlert, S. Grimme, ChemRxiv, 2019, preprint.
     DOI: 10.26434/chemrxiv.8326202.v1
   for GFN-FF:
   * S. Spicher and S. Grimme, Angew. Chem. Int. Ed., 2020, 59, 15665-15673.
     DOI: 10.1002/anie.202004239
   
   for ALPB and GBSA implicit solvation:
   * S. Ehlert, M. Stahn, S. Spicher, S. Grimme, J. Chem. Theory Comput.,
     2021, 17, 4250-4261. DOI: 10.1021/acs.jctc.1c00471
   
   for ddCOSMO and CPCM-X implicit solvation:
   * M. Stahn, S. Ehlert, S. Grimme, J. Phys. Chem. A,
     2023, XX, XXXX-XXXX. DOI: 10.1021/acs.jpca.3c04382
   
   for DFT-D4:
   * E. Caldeweyher, C. Bannwarth and S. Grimme, J. Chem. Phys., 2017,
     147, 034112. DOI: 10.1063/1.4993215
   * E. Caldeweyher, S. Ehlert, A. Hansen, H. Neugebauer, S. Spicher,
     C. Bannwarth and S. Grimme, J. Chem. Phys., 2019, 150, 154122.
     DOI: 10.1063/1.5090222
   * E. Caldeweyher, J.-M. Mewes, S. Ehlert and S. Grimme, Phys. Chem. Chem. Phys.
     2020, 22, 8499-8512. DOI: 10.1039/D0CP00502A
   
   for sTDA-xTB:
   * S. Grimme and C. Bannwarth, J. Chem. Phys., 2016, 145, 054103.
     DOI: 10.1063/1.4959605
   
   in the mass-spec context:
   * V. Asgeirsson, C. Bauer and S. Grimme, Chem. Sci., 2017, 8, 4879.
     DOI: 10.1039/c7sc00601b
   * J. Koopman and S. Grimme, ACS Omega 2019, 4, 12, 15120-15133.
     DOI: 10.1021/acsomega.9b02011
   
   for metadynamics refer to:
   * S. Grimme, J. Chem. Theory Comput., 2019, 155, 2847-2862
     DOI: 10.1021/acs.jctc.9b00143
   
   for SPH calculations refer to:
   * S. Spicher and S. Grimme, J. Chem. Theory Comput., 2021, 17, 1701-1714
     DOI: 10.1021/acs.jctc.0c01306
   
   for ONIOM refer to:
   * C. Plett, A. Katbashev, S. Ehlert, S. Grimme, M. Bursch,
     Phys. Chem. Chem. Phys., 2023, 25, 17860-17868. DOI: 10.1039/D3CP02178E
   
   for DIPRO refer to:
   * J. Kohn, N. Gildemeister, S. Grimme, D. Fazzi, A. Hansen,
     J. Chem. Phys., 2023, just accepted.
   
   for PTB refer to:
   * S. Grimme, M. Mueller, A. Hansen, J. Chem. Phys., 2023, 158, 124111.
     DOI: 10.1063/5.0137838
   
   with help from (in alphabetical order)
   P. Atkinson, C. Bannwarth, F. Bohle, G. Brandenburg, E. Caldeweyher
   M. Checinski, S. Dohm, S. Ehlert, S. Ehrlich, I. Gerasimov, C. Hölzer
   A. Katbashev, J. Kohn, J. Koopman, C. Lavigne, S. Lehtola, F. März, M. Müller,
   F. Musil, H. Neugebauer, J. Pisarek, C. Plett, P. Pracht, F. Pultar,
   J. Seibert, P. Shushkov, S. Spicher, M. Stahn, M. Steiner, T. Strunk,
   J. Stückrath, T. Rose, and J. Unsleber
   
 * started run on 2025/07/16 at 15:48:09.981     
   ID    Z sym.   atoms
    1    1 H      1-13, 38-41, 45-47
    2    7 N      14, 33, 37
    3    6 C      15-17, 19-24, 26-32, 36, 42, 44
    4    8 O      18, 25, 34, 35, 43

           -------------------------------------------------
          |                Calculation Setup                |
           -------------------------------------------------

          program call               : /home/esp/bin/orca_6_1_0/otool_xtb /home/esp/scriptDevelopment/drFrankenstein/11_PCY_CHARMM/04_torsion_scanning/torsion_NH1-CT1-CG321-CG2R61/scans_PCY_conformer_21/PCY_conformer_21_opt/orca_opt_XTB.xyz --grad -c 0 -u 0 -P 1 --namespace /home/esp/scriptDevelopment/drFrankenstein/11_PCY_CHARMM/04_torsion_scanning/torsion_NH1-CT1-CG321-CG2R61/scans_PCY_conformer_21/PCY_conformer_21_opt/orca_opt --input /home/esp/scriptDevelopment/drFrankenstein/11_PCY_CHARMM/04_torsion_scanning/torsion_NH1-CT1-CG321-CG2R61/scans_PCY_conformer_21/PCY_conformer_21_opt/orca_opt_XTB.input.tmp --alpb WATER --acc 0.200000
          calculation namespace      : /home/esp/scriptDevelopment/drFrankenstein/11_PCY_CHARMM/04_torsion_scanning/torsion_NH1-CT1-CG321-CG2R61/scans_PCY_conformer_21/PCY_conformer_21_opt/orca_opt
          coordinate file            : /home/esp/scriptDevelopment/drFrankenstein/11_PCY_CHARMM/04_torsion_scanning/torsion_NH1-CT1-CG321-CG2R61/scans_PCY_conformer_21/PCY_conformer_21_opt/orca_opt_XTB.xyz
          omp threads                :                     1


           -------------------------------------------------
          |                 G F N 2 - x T B                 |
           -------------------------------------------------

        Reference                      10.1021/acs.jctc.8b01176
      * Hamiltonian:
        H0-scaling (s, p, d)           1.850000    2.230000    2.230000
        zeta-weighting                 0.500000
      * Dispersion:
        s8                             2.700000
        a1                             0.520000
        a2                             5.000000
        s9                             5.000000
      * Repulsion:
        kExp                           1.500000    1.000000
        rExp                           1.000000
      * Coulomb:
        alpha                          2.000000
        third order                    shell-resolved
        anisotropic                    true
        a3                             3.000000
        a5                             4.000000
        cn-shift                       1.200000
        cn-exp                         4.000000
        max-rad                        5.000000

      * Solvation model:               ALPB
        Solvent                        WATER
        Parameter file                 internal GFN2-xTB/ALPB
        Dielectric constant                8.0200E+01
        Reference state                gsolv [1 M gas/solution]
        Free energy shift                  1.0808E-03 Eh       6.7819E-01 kcal/mol
        Temperature                        2.9815E+02 K
        Density                            1.0000E+00 kg/L
        Solvent mass                       1.8000E+01 g/mol
        Interaction kernel             P16
        Born radius scaling (c1)           1.4744E+00
        Born radii integrator          GBOBC
        Born offset                        0.0000E+00 a0       0.0000E+00 AA
        H-bond correction              true
        Ion screening                  false
        Surface tension                    1.0000E-05 Eh       1.5569E+01 dyn/cm
        Grid points                               230 per atom
q/qsh data taken from xtbrestart
CAMM data taken from xtbrestart

          ...................................................
          :                      SETUP                      :
          :.................................................:
          :  # basis functions                 128          :
          :  # atomic orbitals                 128          :
          :  # shells                           74          :
          :  # electrons                       141          :
          :  max. iterations                   250          :
          :  Hamiltonian                  GFN2-xTB          :
          :  restarted?                       true          :
          :  GBSA solvation                   true          :
          :  PC potential                    false          :
          :  electronic temp.          300.0000000     K    :
          :  accuracy                    0.2000000          :
          :  -> integral cutoff          0.3198970E+02      :
          :  -> integral neglect         0.2000000E-08      :
          :  -> SCF convergence          0.2000000E-06 Eh   :
          :  -> wf. convergence          0.2000000E-04 e    :
          :  Broyden damping             0.4000000          :
          :  net charge                          0          :
          :  unpaired electrons                  0          :
          ...................................................

 iter      E             dE          RMSdq      gap      omega  full diag
   1    -80.9443601 -0.809444E+02  0.787E-03    0.11       0.0  T
   2    -80.9443600  0.153284E-07  0.473E-03    0.11       3.1  T
   3    -80.9443547  0.534310E-05  0.102E-02    0.11       1.4  T
   4    -80.9443601 -0.540767E-05  0.430E-04    0.11      33.9  T
   5    -80.9443601 -0.154499E-08  0.260E-04    0.11      56.1  T
   6    -80.9443601 -0.406828E-09  0.745E-05    0.11     195.8  T
   7    -80.9443601 -0.718501E-10  0.251E-05    0.11     581.2  T

   *** convergence criteria satisfied after 7 iterations ***

         #    Occupation            Energy/Eh            Energy/eV
      -------------------------------------------------------------
         1        2.0000           -0.7704871             -20.9660
       ...           ...                  ...                  ...
        65        2.0000           -0.4244785             -11.5506
        66        2.0000           -0.4177307             -11.3670
        67        2.0000           -0.4140226             -11.2661
        68        2.0000           -0.4058788             -11.0445
        69        2.0000           -0.4031331             -10.9698
        70        2.0000           -0.3841213             -10.4525
        71        0.8898           -0.3312057              -9.0126 (HOMO)
        72        0.1102           -0.3272373              -8.9046 (LUMO)
        73                         -0.2487347              -6.7684
        74                         -0.2355819              -6.4105
        75                         -0.2318566              -6.3091
        76                         -0.2269895              -6.1767
       ...                                ...                  ...
       128                          0.6577348              17.8979
      -------------------------------------------------------------
                  HL-Gap            0.0039684 Eh            0.1080 eV
             Fermi-level           -0.3434425 Eh           -9.3455 eV

 SCC (total)                   0 d,  0 h,  0 min,  0.093 sec
 SCC setup                      ...        0 min,  0.002 sec (  2.104%)
 Dispersion                     ...        0 min,  0.001 sec (  0.595%)
 classical contributions        ...        0 min,  0.000 sec (  0.085%)
 integral evaluation            ...        0 min,  0.007 sec (  7.716%)
 iterations                     ...        0 min,  0.057 sec ( 61.027%)
 molecular gradient             ...        0 min,  0.026 sec ( 27.654%)
 printout                       ...        0 min,  0.001 sec (  0.739%)

         :::::::::::::::::::::::::::::::::::::::::::::::::::::
         ::                     SUMMARY                     ::
         :::::::::::::::::::::::::::::::::::::::::::::::::::::
         :: total energy             -79.901548821612 Eh    ::
         :: total w/o Gsasa/hb       -79.899271099261 Eh    ::
         :: gradient norm              0.000210973243 Eh/a0 ::
         :: HOMO-LUMO gap              0.107984531731 eV    ::
         ::.................................................::
         :: SCC energy               -80.943651389720 Eh    ::
         :: -> isotropic ES            0.191804675832 Eh    ::
         :: -> anisotropic ES         -0.000263294489 Eh    ::
         :: -> anisotropic XC          0.021571356244 Eh    ::
         :: -> dispersion             -0.050395660089 Eh    ::
         :: -> Gsolv                  -0.037466728665 Eh    ::
         ::    -> Gelec               -0.035189006314 Eh    ::
         ::    -> Gsasa                0.004014192126 Eh    ::
         ::    -> Ghb                 -0.007372674175 Eh    ::
         ::    -> Gshift               0.001080759698 Eh    ::
         :: repulsion energy           1.042102568108 Eh    ::
         :: add. restraining           0.000000000000 Eh    ::
         :: total charge              -0.000000000000 e     ::
         :::::::::::::::::::::::::::::::::::::::::::::::::::::


Property printout bound to 'properties.out'

           -------------------------------------------------
          | TOTAL ENERGY              -79.901548821612 Eh   |
          | GRADIENT NORM               0.000210973243 Eh/α |
          | HOMO-LUMO GAP               0.107984531731 eV   |
           -------------------------------------------------

------------------------------------------------------------------------
 * finished run on 2025/07/16 at 15:48:10.105     
------------------------------------------------------------------------
 total:
 * wall-time:     0 d,  0 h,  0 min,  0.123 sec
 *  cpu-time:     0 d,  0 h,  0 min,  0.075 sec
 * ratio c/w:     0.608 speedup
 SCF:
 * wall-time:     0 d,  0 h,  0 min,  0.093 sec
 *  cpu-time:     0 d,  0 h,  0 min,  0.061 sec
 * ratio c/w:     0.648 speedup


-------------------------   --------------------
FINAL SINGLE POINT ENERGY       -79.901548821610
-------------------------   --------------------


-------------
DIPOLE MOMENT
-------------
                                X             Y             Z
Total Dipole Moment    :     -2.29300       2.46100      -1.10100
                        -----------------------------------------
Magnitude (a.u.)       :      3.53929
Magnitude (Debye)      :      8.99616

                                *** OPTIMIZATION RUN DONE ***


--------------------------------
SUGGESTED CITATIONS FOR THIS RUN
--------------------------------

Below you find a list of papers that are relevant to this ORCA run
We neither can nor want to force you to cite these papers, but we appreciate if you do
You receive ORCA, which is the product of decades of hard work by many enthusiastic individuals, for free
The only thing we kindly ask in return is that you cite our papers,
We deeply appreciate it, if you show your appreciation for ORCA by not just citing the generic ORCA reference.

Please note that relegating all ORCA citations to the supporting information does *not* help us.
SI sections are not indexed - citations you put there will not count into any citation statistics
But we need these citations in order to attract the funding resources that allow us to do what we are doing

Therefore, if you are a happy ORCA user, please consider citing a few of the papers listed below in the main body of your paper

In addition to the list printed below, the program has created the file /home/esp/scriptDevelopment/drFrankenstein/11_PCY_CHARMM/04_torsion_scanning/torsion_NH1-CT1-CG321-CG2R61/scans_PCY_conformer_21/PCY_conformer_21_opt/orca_opt.bibtex that contains the list in bibtex format
You can import this file easily into all common literature databanks and citation aid programs


List of essential papers. We consider these as the minimum necessary citations

  1. Bannwarth, C.; Ehlert, S.; Grimme, S.
     GFN2-xTB—An Accurate and Broadly Parametrized Self-Consistent Tight-Binding Quantum Chemical Method with Multipole Electrostatics and Density-Dependent Dispersion Contributions
     J. Chem. Theory Comput. 2019 15(3), 1652-1671
     doi.org/10.1021/acs.jctc.8b01176
  2. Neese, F.
     Software update: the ORCA program system, version 6.0
     WIRES Comput. Molec. Sci. 2025 15(1), e70019
     doi.org/10.1002/wcms.7019

List of papers to cite with high priority. The work reported in these papers was absolutely
necessary for this run to complete.
Our perspective: the developers of density functionals and basis sets usually get cited in chemistry papers
Good! But without the algorithms to do something with them, the functionals or basis sets would not do anything.
Hence, in our opinion, the algorithm design and method developments papers are equally worthy of getting cited

  1. Bannwarth, C.; Caldeweyher, E.; Ehlert, S.; Hansen, A.; Pracht, P.; Seibert, J.; Spicher, S.; Grimme, S.
     Extended tight-binding quantum chemistry methods
     WIRES Comput. Molec. Sci. 2020 11(2), e1493
     doi.org/10.1002/wcms.1493

List of suggested additional citations. These are papers that are important in the 'surrounding' of 
of this run, or papers that preceded the highly important papers. If you like your results we are grateful for a citation.

  1. Neese, F.
     The ORCA program system
     WIRES Comput. Molec. Sci. 2012 2(1), 73-78
     doi.org/10.1002/wcms.81
  2. Neese, F.
     Software update: the ORCA program system, version 4.0
     WIRES Comput. Molec. Sci. 2018 8(1), 1-6
     doi.org/10.1002/wcms.1327
  3. Neese, F.; Wennmohs, F.; Becker, U.; Riplinger, C.
     The ORCA quantum chemistry program package
     J. Chem. Phys. 2020 152(22), 224108
     doi.org/10.1063/5.0004608
  4. Neese, F.
     Software update: The ORCA program system—Version 5.0
     WIRES Comput. Molec. Sci. 2022 12(1), e1606
     doi.org/10.1002/wcms.1606

List of optional additional citations

  1. Neese, F.
     Approximate second-order SCF convergence for spin unrestricted wavefunctions
     Chem. Phys. Lett. 2000 325(1-3), 93-98
     doi.org/10.1016/s0009-2614(00)00662-x

Timings for individual modules:

Sum of individual times          ...        5.770 sec (=   0.096 min)
Geometry relaxation              ...        0.679 sec (=   0.011 min)  11.8 %
XTB module                       ...        5.090 sec (=   0.085 min)  88.2 %
                             ****ORCA TERMINATED NORMALLY****
TOTAL RUN TIME: 0 days 0 hours 0 minutes 6 seconds 76 msec
