
                                 *****************
                                 * O   R   C   A *
                                 *****************

                                            #,                                       
                                            ###                                      
                                            ####                                     
                                            #####                                    
                                            ######                                   
                                           ########,                                 
                                     ,,################,,,,,                         
                               ,,#################################,,                 
                          ,,##########################################,,             
                       ,#########################################, ''#####,          
                    ,#############################################,,   '####,        
                  ,##################################################,,,,####,       
                ,###########''''           ''''###############################       
              ,#####''   ,,,,##########,,,,          '''####'''          '####       
            ,##' ,,,,###########################,,,                        '##       
           ' ,,###''''                  '''############,,,                           
         ,,##''                                '''############,,,,        ,,,,,,###''
      ,#''                                            '''#######################'''  
     '                                                          ''''####''''         
             ,#######,   #######,   ,#######,      ##                                
            ,#'     '#,  ##    ##  ,#'     '#,    #''#        ,####,    ,#,          
            ##       ##  ##   ,#'  ##            #'  '#       #'       ,# #          
            ##       ##  #######   ##           ,######,      #####,      #          
            '#,     ,#'  ##    ##  '#,     ,#' ,#      #,     #,   #      #          
             '#######'   ##     ##  '#######'  #'      '#     '####' #    #          



                #########################################################
                #                        -***-                          #
                #          Department of theory and spectroscopy        #
                #                                                       #
                #                      Frank Neese                      #
                #                                                       #
                #     Directorship, Architecture, Infrastructure        #
                #                    SHARK, DRIVERS                     #
                #        Core code/Algorithms in most modules           #
                #                                                       #
                #        Max Planck Institute fuer Kohlenforschung      #
                #                Kaiser Wilhelm Platz 1                 #
                #                 D-45470 Muelheim/Ruhr                 #
                #                      Germany                          #
                #                                                       #
                #                  All rights reserved                  #
                #                        -***-                          #
                #########################################################


                         Program Version 6.1.0  -  RELEASE   -
                                (GIT: $679e74b$)
                          ($2025-06-10 18:02:51 +0200$)


 With contributions from (in alphabetic order):
[Max-Planck-Institut fuer Kohlenforschung]                               
  Daniel Aravena         : Magnetic Suceptibility                        
  Michael Atanasov       : Ab Initio Ligand Field Theory (pilot matlab implementation)
  Alexander A. Auer      : GIAO ZORA, VPT2 properties, NMR spectrum      
  Ute Becker             : All parallelization in ORCA, NUMFREQ, NUMCALC 
  Giovanni Bistoni       : ED, misc. LED, open-shell LED, HFLD           
  Dmytro Bykov           : pre 5.0 version of the SCF Hessian            
  Marcos Casanova-Páez   : Triplet and SCS-CIS(D). UHF-(DLPNO)-IP/EA/STEOM-CCSD. UHF-CVS-IP/STEOM-CCSD   
  Vijay G. Chilkuri      : MRCI spin determinant printing, contributions to CSF-ICE 
  Pauline Colinet        : FMM embedding                                 
  Dipayan Datta          : RHF DLPNO-CCSD density                        
  Achintya Kumar Dutta   : EOM-CC, STEOM-CC                              
  Nicolas Foglia         : Exact transition moments, OPA infrastructure, MCD improvements    
  Dmitry Ganyushin       : Spin-Orbit,Spin-Spin,Magnetic field MRCI      
  Miquel Garcia-Rates    : C-PCM and meta-GGA Hessian, CCSD/C-PCM, Gaussian charge scheme 
  Tiago L. C. Gouveia    : GS-ROHF, GS-ROCIS                             
  Yang Guo               : DLPNO-NEVPT2, F12-NEVPT2, CIM, IAO-localization        
  Andreas Hansen         : Spin unrestricted coupled pair/coupled cluster methods 
  Ingolf Harden          : AUTO-CI MPn and infrastructure                
  Benjamin Helmich-Paris : MC-RPA, TRAH-(SCF,CASSCF), AVAS, COSX integrals, SCF dyn. polar., MC-PDFT, srDFT 
  Lee Huntington         : MR-EOM, pCC                                   
  Robert Izsak           : Overlap fitted RIJCOSX, COSX-SCS-MP3, EOM     
  Riya Kayal             : Wick's Theorem for AUTO-CI, AUTO-CI UHF-CCSDT 
  Emily Kempfer          : AUTO-CI RHF CISDT and CCSDT, approximate NEVPT4
  Christian Kollmar      : KDIIS, OOCD, Brueckner-CCSD(T), CCSD density, CASPT2, CASPT2-K, improved NEVPT2 
  Axel Koslowski         : Symmetry handling                             
  Simone Kossmann        : meta-GGA functionals, TD-DFT gradient, OOMP2, (MP2 Hessian; deprecated post 5.0) 
  Lucas Lang             : DCDCAS, Hyperfine gauge corrections, ICE-SOC+SSC
  Marvin Lechner         : AUTO-CI (C++ implementation), FIC-MRCC        
  Spencer Leger          : CASSCF response                               
  Dagmar Lenk            : GEPOL surface, SMD, ORCA-2-JSON               
  Dimitrios Liakos       : Extrapolation schemes; Compound Job, Property file
  Dimitrios Manganas     : Further ROCIS development; embedding schemes. LFT, Crystal Embedding 
  Dimitrios Pantazis     : SARC Basis sets                               
  Anastasios Papadopoulos: AUTO-CI, single reference methods and gradients 
  Taras Petrenko         : pre 6.0 DFT Hessian and TD-DFT gradient,  ECA, NRVS 
  Petra Pikulova         : Analytic Raman intensities                    
  Peter Pinski           : DLPNO-MP2, DLPNO-MP2 Gradient                 
  Shashank Vittal Rao    : ES-AILFT, MagRelax                            
  Christoph Reimann      : Effective Core Potentials                     
  Marius Retegan         : Local ZFS, SOC                                
  Christoph Riplinger    : Optimizer, TS searches, QM/MM, DLPNO-CCSD(T), (RO)-DLPNO pert. Triples 
  Michael Roemelt        : Original ROCIS implementation, recursive CI coupling coefficients
  Masaaki Saitow         : Open-shell DLPNO-CCSD energy and density      
  Barbara Sandhoefer     : DKH picture change effects                    
  Yorick L. A. Schmerwitz: GMF and freeze-and-release deltaSCF, NEB S-IDPP initial path                    
  Kantharuban Sivalingam : CASSCF convergence/infrastructure, NEVPT2, NEVPT3, NEVPT4(SD), FIC-MRCI and CEPA variants
  Bernardo de Souza      : ESD, SOC TD-DFT                               
  Georgi L. Stoychev     : AutoAux, RI-MP2 NMR, DLPNO-MP2 response, X2C  
  Van Anh Tran           : RI-MP2 g-tensors                              
  Willem Van den Heuvel  : Paramagnetic NMR                              
  Zikuan Wang            : NOTCH, Electric field optimization            
  Frank Wennmohs         : Technical directorship and infrastructure     
  Hang Xu                : AUTO-CI-Response properties                   
                                                                         
[FACCTs GmbH]                                                            
  Markus Bursch, Nicolas Foglia, Miquel Garcia-Rates, Ingolf Harden, Hagen Neugebauer, Anastasios Papadopoulos, 
  Christoph Riplinger, Bernardo de Souza, Georgi L. Stoychev                                                    
                                                                 
  APM, various basis sets, CI-OPT, improved COSX, DLPNO-Multilevel,           
  DOCKER, DRACO, updates on ESD, Fragmentator, GOAT, IRC, LR-CPCM, L-BFGS, MBIS, meta-GGA TD-DFT gradient, ML-optimized integration grids, 
  MM, NACMEs, nearIR, NEB, NEB-TS, NL-DFT gradient (VV10), 2- and 3-layer-ONIOM, interface openCOSMO-RS, QMMM,   
  Crystal-QMMM, RESP, rigid body optimization, SF, symmetry and pop. for TD-DFT, various functionals, SOLVATOR                                   
                                                                         
[Other institutions]                                                     
  V. Asgeirsson          : NEB                                           
  Christoph Bannwarth    : sTDA-DFT, sTD-DFT, PBEh-3c, B97-3c, D3        
  Giovanni Bistoni       : ETS/NOCV, ADLD/ADEX, COVALED                  
  Martin Brehm           : Molecular dynamics                            
  Ronald Cardenas        : ETS/NOCV                                      
  Martina Colucci        : COVALED                                       
  Sebastian Ehlert       : rSCAN, r2SCAN, r2SCAN-3c, D4, dhf basis sets  
  Marvin Friede          : D4 for Fr, Ra, Ac-Lr                          
  Lars Goerigk           : TD-DFT with DH, B97 family of functionals     
  Stefan Grimme          : VdW corrections, initial TS optimization, DFT functionals, gCP, sTDA/sTD-DF 
  Waldemar Hujo          : DFT-NL                                        
  H. Jonsson             : NEB                                           
  Holger Kruse           : gCP                                           
  Marcel Mueller         : wB97X-3c, vDZP basis set                      
  Hagen Neugebauer       : wr2SCAN, Native XTB                           
  Gianluca Regni         : ADLD/ADEX                                     
  Tobias Risthaus        : pre 6.0 range-separated hybrid DFT and stability analysis
  Lukas Wittmann         : regularized MP2, r2SCAN double-hybrids, wr2SCAN        
                                                                         
We gratefully acknowledge several colleagues who have allowed us to      
interface, adapt or use parts of their codes:                            
  Ed Valeev, F. Pavosevic, A. Kumar             : LibInt (2-el integral package), F12 methods 
  Garnet Chan, S. Sharma, J. Yang, R. Olivares  : DMRG                   
  Ulf Ekstrom                                   : XCFun DFT Library      
  Mihaly Kallay                                 : mrcc  (arbitrary order and MRCC methods)
  Frank Weinhold                                : gennbo (NPA and NBO analysis)           
  Simon Mueller                                 : openCOSMO-RS                            
  Christopher J. Cramer and Donald G. Truhlar   : smd solvation model                     
  S Lehtola, MJT Oliveira, MAL Marques          : LibXC Library                           
  Liviu Ungur et al                             : ANISO software                          


 Your calculation uses the libint2 library for the computation of 2-el integrals
 For citations please refer to: http://libint.valeyev.net

 Your ORCA version has been built with support for libXC version: 7.0.0
 For citations please refer to: https://libxc.gitlab.io

 This ORCA versions uses:
   CBLAS   interface :  Fast vector & matrix operations
   LAPACKE interface :  Fast linear algebra routines
   SCALAPACK package :  Parallel linear algebra routines
   Shared memory     :  Shared parallel matrices
   BLAS/LAPACK       :  OpenBLAS 0.3.29  USE64BITINT DYNAMIC_ARCH NO_AFFINITY Haswell SINGLE_THREADED
        Core in use  :  Haswell
   Copyright (c) 2011-2014, The OpenBLAS Project


  ***********************************
  * Starting time: Wed Jul 16 15:48:04 2025
  * Host name:     MONSTER
  * Process ID:    442520
  * Working dir.:  /home/esp/scriptDevelopment/drFrankenstein
  ***********************************



***************************************
The coordinates will be read from file: /home/esp/scriptDevelopment/drFrankenstein/11_PCY_CHARMM/03_GOAT_conformers/PCY_conformer_34.xyz
***************************************


Your calculation utilizes the semiempirical GFN2-xTB method
Please cite in your paper:
Bannwarth, C.; Ehlert S.; Grimme, S. J. Chem. Theory Comput. 2019, 15, 1652.
   

================================================================================

================================================================================
                                        WARNINGS
                       Please study these warnings very carefully!
================================================================================


WARNING: Geometry Optimization
  ===> : Switching off AutoStart
         For restart on a previous wavefunction, please use MOREAD

WARNING: Found dipole moment calculation with XTB calculation
  ===> : Switching off dipole moment calculation


================================================================================
                                       INPUT FILE
================================================================================
NAME = /home/esp/scriptDevelopment/drFrankenstein/11_PCY_CHARMM/04_torsion_scanning/torsion_NH1-CT1-CG321-CG2R61/scans_PCY_conformer_34/PCY_conformer_34_opt/orca_opt.inp
|  1>  # --------------------------------- #
|  2>  #  Geometry Optimisation            #
|  3>  # --------------------------------- #
|  4> ! XTB2 ALPB(water) Opt
|  5> *xyzfile 0 1 /home/esp/scriptDevelopment/drFrankenstein/11_PCY_CHARMM/03_GOAT_conformers/PCY_conformer_34.xyz
|  6> 
|  7> 
|  8>                          ****END OF INPUT****
================================================================================

                       *****************************
                       * Geometry Optimization Run *
                       *****************************

Geometry optimization settings:
Update method            Update   .... BFGS
Choice of coordinates    CoordSys .... (2022) Redundant Internals
Initial Hessian          InHess   .... Almloef's Model
Max. no of cycles        MaxIter  .... 141

Convergence Tolerances:
Energy Change            TolE     ....  5.0000e-06 Eh
Max. Gradient            TolMAXG  ....  3.0000e-04 Eh/bohr
RMS Gradient             TolRMSG  ....  1.0000e-04 Eh/bohr
Max. Displacement        TolMAXD  ....  4.0000e-03 bohr
RMS Displacement         TolRMSD  ....  2.0000e-03 bohr
Strict Convergence                .... False

------------------------------------------------------------------------------
                        ORCA OPTIMIZATION COORDINATE SETUP
------------------------------------------------------------------------------

The optimization will be done in redundant internal coordinates (2022)
Making redundant internal coordinates   ...  (2022 redundants) done
Evaluating the initial hessian          ...  (Almloef) done
Evaluating the coordinates              ...  done
Calculating the B-matrix                .... done
Calculating the G-matrix                .... done
The number of degrees of freedom        ....  227

    -----------------------------------------------------------------
                    Redundant Internal Coordinates


    -----------------------------------------------------------------
         Definition                    Initial Value    Approx d2E/dq
    -----------------------------------------------------------------
      1. B(N  13,H  11)                  1.0246         0.410165   
      2. B(C  14,N  13)                  1.3646         0.614369   
      3. B(C  15,C  14)                  1.4491         0.502841   
      4. B(C  16,C  14)                  1.4877         0.436411   
      5. B(C  16,H   3)                  1.0930         0.356152   
      6. B(C  16,H   7)                  1.0921         0.357283   
      7. B(O  17,C  15)                  1.2371         0.981342   
      8. B(O  17,H  11)                  1.9974         0.011504   
      9. B(C  18,C  16)                  1.5144         0.395602   
     10. B(C  19,C  18)                  1.3908         0.623000   
     11. B(C  19,H   5)                  1.0806         0.372723   
     12. B(C  20,C  19)                  1.3778         0.653459   
     13. B(C  20,H   2)                  1.0783         0.375847   
     14. B(C  21,C  20)                  1.3936         0.616499   
     15. B(C  22,C  21)                  1.3896         0.625794   
     16. B(C  22,H   6)                  1.0785         0.375676   
     17. B(C  23,C  22)                  1.3827         0.641667   
     18. B(C  23,C  18)                  1.3850         0.636443   
     19. B(C  23,H   9)                  1.0788         0.375239   
     20. B(O  24,C  21)                  1.3680         0.606752   
     21. B(C  25,O  24)                  1.4098         0.520400   
     22. B(C  25,H   4)                  1.0997         0.347514   
     23. B(C  25,H   0)                  1.0959         0.352435   
     24. B(C  26,C  25)                  1.5105         0.401347   
     25. B(C  27,C  26)                  1.3905         0.623650   
     26. B(C  27,H   1)                  1.0805         0.372870   
     27. B(C  28,C  27)                  1.3831         0.640771   
     28. B(C  28,H  12)                  1.0792         0.374621   
     29. B(C  29,C  28)                  1.3858         0.634538   
     30. B(C  29,H   8)                  1.0782         0.376032   
     31. B(C  30,C  29)                  1.3794         0.649627   
     32. B(C  30,H  10)                  1.0786         0.375461   
     33. B(C  31,C  30)                  1.3905         0.623701   
     34. B(C  31,C  26)                  1.3963         0.610445   
     35. B(N  32,C  31)                  1.4421         0.462128   
     36. B(O  33,N  32)                  1.2101         0.970564   
     37. B(O  34,N  32)                  1.2162         0.948962   
     38. B(N  36,C  35)                  1.4390         0.467338   
     39. B(N  36,C  15)                  1.3615         0.621298   
     40. B(H  37,N  36)                  1.0054         0.440156   
     41. B(H  38,C  35)                  1.0890         0.361466   
     42. B(H  39,C  35)                  1.0922         0.357203   
     43. B(H  40,C  35)                  1.0927         0.356599   
     44. B(C  41,N  13)                  1.3712         0.599549   
     45. B(O  42,C  41)                  1.2150         1.064345   
     46. B(C  43,C  41)                  1.5070         0.406543   
     47. B(H  44,O  34)                  2.4029         0.010000   
     48. B(H  44,C  43)                  1.0901         0.360025   
     49. B(H  45,C  43)                  1.0864         0.364892   
     50. B(H  46,C  43)                  1.0865         0.364778   
     51. A(H  11,N  13,C  41)          119.0844         0.353408   
     52. A(C  14,N  13,C  41)          131.1053         0.425149   
     53. A(H  11,N  13,C  14)          109.8045         0.354873   
     54. A(N  13,C  14,C  15)          111.4421         0.414708   
     55. A(N  13,C  14,C  16)          120.4306         0.404429   
     56. A(C  15,C  14,C  16)          127.7728         0.392948   
     57. A(O  17,C  15,N  36)          121.8388         0.465764   
     58. A(C  14,C  15,O  17)          119.7445         0.451130   
     59. A(C  14,C  15,N  36)          118.4158         0.415536   
     60. A(H   3,C  16,H   7)          108.2160         0.289979   
     61. A(H   3,C  16,C  14)          109.2359         0.332139   
     62. A(C  14,C  16,C  18)          109.4295         0.376886   
     63. A(H   3,C  16,C  18)          107.7896         0.326796   
     64. A(H   7,C  16,C  14)          111.4588         0.332314   
     65. A(H   7,C  16,C  18)          110.6221         0.326967   
     66. A(C  16,C  18,C  23)          120.7612         0.402552   
     67. A(C  19,C  18,C  23)          118.7747         0.436496   
     68. A(C  16,C  18,C  19)          120.3781         0.401040   
     69. A(C  18,C  19,C  20)          120.6888         0.438577   
     70. A(H   5,C  19,C  18)          119.8964         0.355266   
     71. A(H   5,C  19,C  20)          119.3748         0.358158   
     72. A(H   2,C  20,C  21)          118.4764         0.355137   
     73. A(C  19,C  20,C  21)          120.1554         0.437748   
     74. A(H   2,C  20,C  19)          121.3260         0.358667   
     75. A(C  22,C  21,O  24)          124.8741         0.430275   
     76. A(C  20,C  21,O  24)          115.7867         0.429121   
     77. A(C  20,C  21,C  22)          119.3299         0.434350   
     78. A(C  21,C  22,C  23)          119.8365         0.437492   
     79. A(H   6,C  22,C  23)          119.0956         0.357530   
     80. A(H   6,C  22,C  21)          121.0461         0.356012   
     81. A(C  18,C  23,C  22)          121.0085         0.438826   
     82. A(H   9,C  23,C  22)          119.1306         0.357459   
     83. A(H   9,C  23,C  18)          119.8275         0.356963   
     84. A(C  21,O  24,C  25)          118.8751         0.413630   
     85. A(H   0,C  25,H   4)          108.4311         0.288248   
     86. A(O  24,C  25,C  26)          114.7712         0.387093   
     87. A(H   4,C  25,C  26)          108.9266         0.326251   
     88. A(H   0,C  25,C  26)          109.9510         0.327007   
     89. A(H   4,C  25,O  24)          110.4218         0.338548   
     90. A(H   0,C  25,O  24)          104.1100         0.339344   
     91. A(C  27,C  26,C  31)          117.4506         0.433312   
     92. A(C  25,C  26,C  31)          123.0358         0.400621   
     93. A(C  25,C  26,C  27)          119.3952         0.402134   
     94. A(C  26,C  27,C  28)          121.5083         0.437111   
     95. A(H   1,C  27,C  28)          119.6280         0.356990   
     96. A(H   1,C  27,C  26)          118.8590         0.355352   
     97. A(C  27,C  28,C  29)          120.2076         0.438478   
     98. A(H  12,C  28,C  29)          120.1226         0.356682   
     99. A(H  12,C  28,C  27)          119.6561         0.357274   
    100. A(C  28,C  29,C  30)          119.3943         0.439565   
    101. A(H   8,C  29,C  30)          120.1069         0.358338   
    102. A(H   8,C  29,C  28)          120.4987         0.356909   
    103. A(C  29,C  30,C  31)          120.1401         0.438201   
    104. A(H  10,C  30,C  31)          118.5919         0.355775   
    105. A(H  10,C  30,C  29)          121.2625         0.358246   
    106. A(C  30,C  31,N  32)          116.4895         0.409635   
    107. A(C  26,C  31,N  32)          122.2572         0.408080   
    108. A(C  26,C  31,C  30)          121.2190         0.433319   
    109. A(O  33,N  32,O  34)          124.8955         0.495722   
    110. A(C  31,N  32,O  34)          117.0155         0.435751   
    111. A(C  31,N  32,O  33)          117.9857         0.437522   
    112. A(N  36,C  35,H  38)          107.2317         0.334727   
    113. A(H  39,C  35,H  40)          109.0758         0.290026   
    114. A(H  38,C  35,H  40)          109.3261         0.290566   
    115. A(N  36,C  35,H  40)          111.0245         0.333974   
    116. A(H  38,C  35,H  39)          109.4339         0.290644   
    117. A(N  36,C  35,H  39)          110.7140         0.334068   
    118. A(C  35,N  36,H  37)          117.8196         0.342935   
    119. A(C  15,N  36,H  37)          120.1121         0.359840   
    120. A(C  15,N  36,C  35)          121.9080         0.407527   
    121. A(O  42,C  41,C  43)          124.0150         0.440519   
    122. A(N  13,C  41,C  43)          112.2386         0.397697   
    123. A(N  13,C  41,O  42)          123.7411         0.469669   
    124. A(H  45,C  43,H  46)          109.8515         0.292037   
    125. A(H  44,C  43,H  46)          108.9305         0.291420   
    126. A(C  41,C  43,H  46)          111.6376         0.329568   
    127. A(H  44,C  43,H  45)          109.0104         0.291435   
    128. A(C  41,C  43,H  45)          109.4848         0.329585   
    129. A(C  41,C  43,H  44)          107.8675         0.328855   
    130. D(C  16,C  14,N  13,C  41)      9.3997         0.030521   
    131. D(C  15,C  14,N  13,C  41)   -176.9208         0.030521   
    132. D(C  16,C  14,N  13,H  11)   -171.5043         0.030521   
    133. D(C  15,C  14,N  13,H  11)      2.1751         0.030521   
    134. D(N  36,C  15,C  14,N  13)   -176.0261         0.017225   
    135. D(O  17,C  15,C  14,C  16)    177.4302         0.017225   
    136. D(N  36,C  15,C  14,C  16)     -2.9235         0.017225   
    137. D(O  17,C  15,C  14,N  13)      4.3275         0.017225   
    138. D(H   7,C  16,C  14,C  15)     11.6282         0.014057   
    139. D(C  18,C  16,C  14,N  13)     61.5000         0.014057   
    140. D(H   3,C  16,C  14,C  15)    131.1599         0.014057   
    141. D(H   3,C  16,C  14,N  13)    -56.2887         0.014057   
    142. D(H   7,C  16,C  14,N  13)   -175.8205         0.014057   
    143. D(C  19,C  18,C  16,H   3)    160.5565         0.011626   
    144. D(C  19,C  18,C  16,H   7)    -81.3106         0.011626   
    145. D(C  19,C  18,C  16,C  14)     41.8660         0.011626   
    146. D(C  23,C  18,C  16,H   7)    102.1027         0.011626   
    147. D(C  23,C  18,C  16,H   3)    -16.0302         0.011626   
    148. D(C  20,C  19,C  18,C  16)   -173.2486         0.026873   
    149. D(H   5,C  19,C  18,C  23)   -178.9087         0.026873   
    150. D(C  20,C  19,C  18,C  23)      3.4052         0.026873   
    151. D(H   5,C  19,C  18,C  16)      4.4375         0.026873   
    152. D(C  21,C  20,C  19,C  18)     -0.0463         0.029754   
    153. D(C  21,C  20,C  19,H   5)   -177.7443         0.029754   
    154. D(H   2,C  20,C  19,C  18)    177.5548         0.029754   
    155. D(H   2,C  20,C  19,H   5)     -0.1432         0.029754   
    156. D(O  24,C  21,C  20,C  19)    175.1084         0.026282   
    157. D(O  24,C  21,C  20,H   2)     -2.5604         0.026282   
    158. D(C  22,C  21,C  20,C  19)     -3.8391         0.026282   
    159. D(C  22,C  21,C  20,H   2)    178.4921         0.026282   
    160. D(H   6,C  22,C  21,C  20)   -177.3814         0.027130   
    161. D(C  23,C  22,C  21,O  24)   -174.5167         0.027130   
    162. D(C  23,C  22,C  21,C  20)      4.3282         0.027130   
    163. D(H   6,C  22,C  21,O  24)      3.7738         0.027130   
    164. D(C  18,C  23,C  22,C  21)     -0.9558         0.028617   
    165. D(C  18,C  23,C  22,H   6)   -179.2796         0.028617   
    166. D(H   9,C  23,C  22,C  21)    176.9423         0.028617   
    167. D(H   9,C  23,C  22,H   6)     -1.3816         0.028617   
    168. D(C  22,C  23,C  18,C  19)     -2.9063         0.028122   
    169. D(C  22,C  23,C  18,C  16)    173.7343         0.028122   
    170. D(H   9,C  23,C  18,C  19)    179.2102         0.028122   
    171. D(H   9,C  23,C  18,C  16)     -4.1493         0.028122   
    172. D(C  25,O  24,C  21,C  22)     20.6610         0.026928   
    173. D(C  25,O  24,C  21,C  20)   -158.2206         0.026928   
    174. D(C  26,C  25,O  24,C  21)     44.3307         0.021472   
    175. D(H   4,C  25,O  24,C  21)    -79.2420         0.021472   
    176. D(H   0,C  25,O  24,C  21)    164.5612         0.021472   
    177. D(C  31,C  26,C  25,H   4)    160.9098         0.011951   
    178. D(C  31,C  26,C  25,H   0)    -80.4018         0.011951   
    179. D(C  27,C  26,C  25,O  24)   -139.3961         0.011951   
    180. D(C  27,C  26,C  25,H   4)    -15.0298         0.011951   
    181. D(C  27,C  26,C  25,H   0)    103.6586         0.011951   
    182. D(C  28,C  27,C  26,C  31)     -0.8683         0.026933   
    183. D(C  28,C  27,C  26,C  25)    175.2962         0.026933   
    184. D(H   1,C  27,C  26,C  31)    179.9266         0.026933   
    185. D(H   1,C  27,C  26,C  25)     -3.9089         0.026933   
    186. D(C  29,C  28,C  27,C  26)     -1.5686         0.028532   
    187. D(C  29,C  28,C  27,H   1)    177.6306         0.028532   
    188. D(H  12,C  28,C  27,C  26)    179.7781         0.028532   
    189. D(H  12,C  28,C  27,H   1)     -1.0227         0.028532   
    190. D(C  30,C  29,C  28,H  12)   -179.3214         0.027943   
    191. D(H   8,C  29,C  28,C  27)   -178.0982         0.027943   
    192. D(H   8,C  29,C  28,H  12)      0.5488         0.027943   
    193. D(C  30,C  29,C  28,C  27)      2.0317         0.027943   
    194. D(C  31,C  30,C  29,C  28)     -0.0538         0.029381   
    195. D(C  31,C  30,C  29,H   8)   -179.9245         0.029381   
    196. D(H  10,C  30,C  29,C  28)    179.0887         0.029381   
    197. D(H  10,C  30,C  29,H   8)     -0.7819         0.029381   
    198. D(N  32,C  31,C  30,C  29)    175.4625         0.026938   
    199. D(N  32,C  31,C  30,H  10)     -3.7028         0.026938   
    200. D(C  26,C  31,C  30,C  29)     -2.4511         0.026938   
    201. D(C  26,C  31,C  30,H  10)    178.3837         0.026938   
    202. D(N  32,C  31,C  26,C  27)   -174.9227         0.025739   
    203. D(N  32,C  31,C  26,C  25)      9.0638         0.025739   
    204. D(C  30,C  31,C  26,C  27)      2.8691         0.025739   
    205. D(C  30,C  31,C  26,C  25)   -173.1445         0.025739   
    206. D(O  34,N  32,C  31,C  30)     36.0517         0.016826   
    207. D(O  34,N  32,C  31,C  26)   -146.0582         0.016826   
    208. D(O  33,N  32,C  31,C  30)   -140.4358         0.016826   
    209. D(O  33,N  32,C  31,C  26)     37.4542         0.016826   
    210. D(H  37,N  36,C  35,H  39)    -62.3675         0.018656   
    211. D(H  37,N  36,C  35,H  38)    178.3107         0.018656   
    212. D(C  15,N  36,C  35,H  40)   -116.4580         0.018656   
    213. D(C  15,N  36,C  35,H  39)    122.2320         0.018656   
    214. D(C  15,N  36,C  35,H  38)      2.9102         0.018656   
    215. D(H  37,N  36,C  15,O  17)   -176.3581         0.031267   
    216. D(H  37,N  36,C  15,C  14)      4.0033         0.031267   
    217. D(C  35,N  36,C  15,O  17)     -1.0608         0.031267   
    218. D(C  35,N  36,C  15,C  14)    179.3006         0.031267   
    219. D(C  43,C  41,N  13,C  14)   -173.1658         0.028961   
    220. D(C  43,C  41,N  13,H  11)      7.8075         0.028961   
    221. D(O  42,C  41,N  13,C  14)      6.0289         0.028961   
    222. D(O  42,C  41,N  13,H  11)   -172.9978         0.028961   
    223. D(H  46,C  43,C  41,N  13)    -39.7770         0.012249   
    224. D(H  45,C  43,C  41,O  42)     19.1689         0.012249   
    225. D(H  45,C  43,C  41,N  13)   -161.6390         0.012249   
    226. D(H  44,C  43,C  41,O  42)    -99.3270         0.012249   
    227. D(H  44,C  43,C  41,N  13)     79.8651         0.012249   
    -----------------------------------------------------------------

Number of atoms                         .... 47
Number of degrees of freedom            .... 227


         *************************************************************
         *                GEOMETRY OPTIMIZATION CYCLE   1            *
         *************************************************************
---------------------------------
CARTESIAN COORDINATES (ANGSTROEM)
---------------------------------
  H    -0.468070   -0.644050    4.672840
  H    -0.852650   -3.389200    2.992610
  H    -1.775670    2.751100    2.414130
  H    -2.841200    0.683760   -2.521460
  H    -1.828730   -1.529510    3.940180
  H    -2.416080    3.316230    0.098010
  H    -2.392690   -1.388010    1.560990
  H    -3.984970    1.965430   -2.093870
  H     2.003440   -3.008910   -0.156750
  H    -2.981760   -0.831540   -0.732500
  H     2.199310   -0.587640    0.343040
  H    -0.084350    3.150040   -2.589190
  H     0.504300   -4.411180    1.225300
  N    -0.630680    2.308960   -2.379810
  C    -1.962490    2.605420   -2.401630
  C    -2.191030    3.990660   -2.760520
  C    -2.964730    1.604820   -1.946100
  O    -1.234470    4.708660   -3.076560
  C    -2.721260    1.275740   -0.488070
  C    -2.412550    2.284240    0.418520
  C    -2.054700    1.980060    1.713790
  C    -1.999090    0.651540    2.131130
  C    -2.384850   -0.354340    1.253470
  C    -2.732110   -0.037010   -0.046800
  O    -1.534320    0.445690    3.401160
  C    -1.013110   -0.819990    3.738560
  C    -0.086900   -1.418650    2.706430
  C    -0.169230   -2.777200    2.421730
  C     0.589210   -3.352770    1.418470
  C     1.433120   -2.570410    0.646370
  C     1.540770   -1.221800    0.915410
  C     0.806790   -0.655880    1.951960
  N     1.054390    0.737440    2.229430
  O     1.083720    1.089460    3.386830
  O     1.283490    1.458200    1.276940
  C    -3.779350    5.827760   -3.073740
  N    -3.468400    4.461670   -2.745180
  H    -4.219760    3.871780   -2.431770
  H    -2.846380    6.311190   -3.359600
  H    -4.482990    5.873940   -3.907800
  H    -4.208670    6.349510   -2.215040
  C     0.026220    1.127280   -2.150940
  O    -0.535090    0.058060   -2.017090
  C     1.519400    1.312030   -2.065700
  H     1.753900    1.684730   -1.068540
  H     2.011860    0.354540   -2.210490
  H     1.877410    2.026150   -2.802120

----------------------------
CARTESIAN COORDINATES (A.U.)
----------------------------
  NO LB    ZA    FRAG    MASS        X           Y           Z
   0 H   1.0000    0     1.008   -0.884524   -1.217078    8.830388
   1 H   1.0000    0     1.008   -1.611275   -6.404660    5.655213
   2 H   1.0000    0     1.008   -3.355530    5.198826    4.562045
   3 H   1.0000    0     1.008   -5.369090    1.292119   -4.764869
   4 H   1.0000    0     1.008   -3.455799   -2.890355    7.445861
   5 H   1.0000    0     1.008   -4.565730    6.266766    0.185212
   6 H   1.0000    0     1.008   -4.521529   -2.622959    2.949844
   7 H   1.0000    0     1.008   -7.530502    3.714124   -3.956841
   8 H   1.0000    0     1.008    3.785953   -5.686016   -0.296215
   9 H   1.0000    0     1.008   -5.634710   -1.571383   -1.384224
  10 H   1.0000    0     1.008    4.156094   -1.110479    0.648252
  11 H   1.0000    0     1.008   -0.159398    5.952713   -4.892860
  12 H   1.0000    0     1.008    0.952989   -8.335922    2.315481
  13 N   7.0000    0    14.007   -1.191812    4.363302   -4.497189
  14 C   6.0000    0    12.011   -3.708569    4.923530   -4.538423
  15 C   6.0000    0    12.011   -4.140447    7.541254   -5.216627
  16 C   6.0000    0    12.011   -5.602528    3.032670   -3.677596
  17 O   8.0000    0    15.999   -2.332810    8.898078   -5.813856
  18 C   6.0000    0    12.011   -5.142436    2.410799   -0.922319
  19 C   6.0000    0    12.011   -4.559059    4.316588    0.790888
  20 C   6.0000    0    12.011   -3.882820    3.741771    3.238594
  21 C   6.0000    0    12.011   -3.777733    1.231232    4.027252
  22 C   6.0000    0    12.011   -4.506713   -0.669606    2.368715
  23 C   6.0000    0    12.011   -5.162940   -0.069939   -0.088439
  24 O   8.0000    0    15.999   -2.899445    0.842232    6.427261
  25 C   6.0000    0    12.011   -1.914500   -1.549557    7.064855
  26 C   6.0000    0    12.011   -0.164217   -2.680860    5.114412
  27 C   6.0000    0    12.011   -0.319798   -5.248147    4.576406
  28 C   6.0000    0    12.011    1.113446   -6.335817    2.680520
  29 C   6.0000    0    12.011    2.708204   -4.857371    1.221462
  30 C   6.0000    0    12.011    2.911633   -2.308867    1.729874
  31 C   6.0000    0    12.011    1.524612   -1.239434    3.688670
  32 N   7.0000    0    14.007    1.992508    1.393560    4.213012
  33 O   8.0000    0    15.999    2.047934    2.058781    6.400181
  34 O   8.0000    0    15.999    2.425445    2.755599    2.413067
  35 C   6.0000    0    12.011   -7.141936   11.012870   -5.808527
  36 N   7.0000    0    14.007   -6.554326    8.431334   -5.187638
  37 H   1.0000    0     1.008   -7.974191    7.316604   -4.595379
  38 H   1.0000    0     1.008   -5.378879   11.926421   -6.348724
  39 H   1.0000    0     1.008   -8.471623   11.100138   -7.384672
  40 H   1.0000    0     1.008   -7.953234   11.998835   -4.185819
  41 C   6.0000    0    12.011    0.049549    2.130250   -4.064688
  42 O   8.0000    0    15.999   -1.011174    0.109717   -3.811748
  43 C   6.0000    0    12.011    2.871250    2.479377   -3.903607
  44 H   1.0000    0     1.008    3.314391    3.183678   -2.019248
  45 H   1.0000    0     1.008    3.801864    0.669984   -4.177221
  46 H   1.0000    0     1.008    3.547791    3.828869   -5.295239

      -----------------------------------------------------------      
     |                   =====================                   |     
     |                           x T B                           |     
     |                   =====================                   |     
     |                         S. Grimme                         |     
     |          Mulliken Center for Theoretical Chemistry        |     
     |                    University of Bonn                     |     
      -----------------------------------------------------------      

   * xtb version 6.7.1 (edcfbbe) compiled by 'albert@albert-system' on 2024-07-22

   xtb is free software: you can redistribute it and/or modify it under
   the terms of the GNU Lesser General Public License as published by
   the Free Software Foundation, either version 3 of the License, or
   (at your option) any later version.
   
   xtb is distributed in the hope that it will be useful,
   but WITHOUT ANY WARRANTY; without even the implied warranty of
   MERCHANTABILITY or FITNESS FOR A PARTICULAR PURPOSE.  See the
   GNU Lesser General Public License for more details.
   
   Cite this work as:
   * C. Bannwarth, E. Caldeweyher, S. Ehlert, A. Hansen, P. Pracht,
     J. Seibert, S. Spicher, S. Grimme, WIREs Comput. Mol. Sci., 2020, 11,
     e01493. DOI: 10.1002/wcms.1493
   
   for GFN2-xTB:
   * C. Bannwarth, S. Ehlert and S. Grimme., J. Chem. Theory Comput., 2019,
     15, 1652-1671. DOI: 10.1021/acs.jctc.8b01176
   for GFN1-xTB:
   * S. Grimme, C. Bannwarth, P. Shushkov, J. Chem. Theory Comput., 2017,
     13, 1989-2009. DOI: 10.1021/acs.jctc.7b00118
   for GFN0-xTB:
   * P. Pracht, E. Caldeweyher, S. Ehlert, S. Grimme, ChemRxiv, 2019, preprint.
     DOI: 10.26434/chemrxiv.8326202.v1
   for GFN-FF:
   * S. Spicher and S. Grimme, Angew. Chem. Int. Ed., 2020, 59, 15665-15673.
     DOI: 10.1002/anie.202004239
   
   for ALPB and GBSA implicit solvation:
   * S. Ehlert, M. Stahn, S. Spicher, S. Grimme, J. Chem. Theory Comput.,
     2021, 17, 4250-4261. DOI: 10.1021/acs.jctc.1c00471
   
   for ddCOSMO and CPCM-X implicit solvation:
   * M. Stahn, S. Ehlert, S. Grimme, J. Phys. Chem. A,
     2023, XX, XXXX-XXXX. DOI: 10.1021/acs.jpca.3c04382
   
   for DFT-D4:
   * E. Caldeweyher, C. Bannwarth and S. Grimme, J. Chem. Phys., 2017,
     147, 034112. DOI: 10.1063/1.4993215
   * E. Caldeweyher, S. Ehlert, A. Hansen, H. Neugebauer, S. Spicher,
     C. Bannwarth and S. Grimme, J. Chem. Phys., 2019, 150, 154122.
     DOI: 10.1063/1.5090222
   * E. Caldeweyher, J.-M. Mewes, S. Ehlert and S. Grimme, Phys. Chem. Chem. Phys.
     2020, 22, 8499-8512. DOI: 10.1039/D0CP00502A
   
   for sTDA-xTB:
   * S. Grimme and C. Bannwarth, J. Chem. Phys., 2016, 145, 054103.
     DOI: 10.1063/1.4959605
   
   in the mass-spec context:
   * V. Asgeirsson, C. Bauer and S. Grimme, Chem. Sci., 2017, 8, 4879.
     DOI: 10.1039/c7sc00601b
   * J. Koopman and S. Grimme, ACS Omega 2019, 4, 12, 15120-15133.
     DOI: 10.1021/acsomega.9b02011
   
   for metadynamics refer to:
   * S. Grimme, J. Chem. Theory Comput., 2019, 155, 2847-2862
     DOI: 10.1021/acs.jctc.9b00143
   
   for SPH calculations refer to:
   * S. Spicher and S. Grimme, J. Chem. Theory Comput., 2021, 17, 1701-1714
     DOI: 10.1021/acs.jctc.0c01306
   
   for ONIOM refer to:
   * C. Plett, A. Katbashev, S. Ehlert, S. Grimme, M. Bursch,
     Phys. Chem. Chem. Phys., 2023, 25, 17860-17868. DOI: 10.1039/D3CP02178E
   
   for DIPRO refer to:
   * J. Kohn, N. Gildemeister, S. Grimme, D. Fazzi, A. Hansen,
     J. Chem. Phys., 2023, just accepted.
   
   for PTB refer to:
   * S. Grimme, M. Mueller, A. Hansen, J. Chem. Phys., 2023, 158, 124111.
     DOI: 10.1063/5.0137838
   
   with help from (in alphabetical order)
   P. Atkinson, C. Bannwarth, F. Bohle, G. Brandenburg, E. Caldeweyher
   M. Checinski, S. Dohm, S. Ehlert, S. Ehrlich, I. Gerasimov, C. Hölzer
   A. Katbashev, J. Kohn, J. Koopman, C. Lavigne, S. Lehtola, F. März, M. Müller,
   F. Musil, H. Neugebauer, J. Pisarek, C. Plett, P. Pracht, F. Pultar,
   J. Seibert, P. Shushkov, S. Spicher, M. Stahn, M. Steiner, T. Strunk,
   J. Stückrath, T. Rose, and J. Unsleber
   
 * started run on 2025/07/16 at 15:48:04.128     
   ID    Z sym.   atoms
    1    1 H      1-13, 38-41, 45-47
    2    7 N      14, 33, 37
    3    6 C      15-17, 19-24, 26-32, 36, 42, 44
    4    8 O      18, 25, 34, 35, 43

           -------------------------------------------------
          |                Calculation Setup                |
           -------------------------------------------------

          program call               : /home/esp/bin/orca_6_1_0/otool_xtb /home/esp/scriptDevelopment/drFrankenstein/11_PCY_CHARMM/04_torsion_scanning/torsion_NH1-CT1-CG321-CG2R61/scans_PCY_conformer_34/PCY_conformer_34_opt/orca_opt_XTB.xyz --grad -c 0 -u 0 -P 1 --namespace /home/esp/scriptDevelopment/drFrankenstein/11_PCY_CHARMM/04_torsion_scanning/torsion_NH1-CT1-CG321-CG2R61/scans_PCY_conformer_34/PCY_conformer_34_opt/orca_opt --input /home/esp/scriptDevelopment/drFrankenstein/11_PCY_CHARMM/04_torsion_scanning/torsion_NH1-CT1-CG321-CG2R61/scans_PCY_conformer_34/PCY_conformer_34_opt/orca_opt_XTB.input.tmp --alpb WATER --acc 0.200000
          calculation namespace      : /home/esp/scriptDevelopment/drFrankenstein/11_PCY_CHARMM/04_torsion_scanning/torsion_NH1-CT1-CG321-CG2R61/scans_PCY_conformer_34/PCY_conformer_34_opt/orca_opt
          coordinate file            : /home/esp/scriptDevelopment/drFrankenstein/11_PCY_CHARMM/04_torsion_scanning/torsion_NH1-CT1-CG321-CG2R61/scans_PCY_conformer_34/PCY_conformer_34_opt/orca_opt_XTB.xyz
          omp threads                :                     1


           -------------------------------------------------
          |                 G F N 2 - x T B                 |
           -------------------------------------------------

        Reference                      10.1021/acs.jctc.8b01176
      * Hamiltonian:
        H0-scaling (s, p, d)           1.850000    2.230000    2.230000
        zeta-weighting                 0.500000
      * Dispersion:
        s8                             2.700000
        a1                             0.520000
        a2                             5.000000
        s9                             5.000000
      * Repulsion:
        kExp                           1.500000    1.000000
        rExp                           1.000000
      * Coulomb:
        alpha                          2.000000
        third order                    shell-resolved
        anisotropic                    true
        a3                             3.000000
        a5                             4.000000
        cn-shift                       1.200000
        cn-exp                         4.000000
        max-rad                        5.000000

      * Solvation model:               ALPB
        Solvent                        WATER
        Parameter file                 internal GFN2-xTB/ALPB
        Dielectric constant                8.0200E+01
        Reference state                gsolv [1 M gas/solution]
        Free energy shift                  1.0808E-03 Eh       6.7819E-01 kcal/mol
        Temperature                        2.9815E+02 K
        Density                            1.0000E+00 kg/L
        Solvent mass                       1.8000E+01 g/mol
        Interaction kernel             P16
        Born radius scaling (c1)           1.4744E+00
        Born radii integrator          GBOBC
        Born offset                        0.0000E+00 a0       0.0000E+00 AA
        H-bond correction              true
        Ion screening                  false
        Surface tension                    1.0000E-05 Eh       1.5569E+01 dyn/cm
        Grid points                               230 per atom

          ...................................................
          :                      SETUP                      :
          :.................................................:
          :  # basis functions                 128          :
          :  # atomic orbitals                 128          :
          :  # shells                           74          :
          :  # electrons                       141          :
          :  max. iterations                   250          :
          :  Hamiltonian                  GFN2-xTB          :
          :  restarted?                      false          :
          :  GBSA solvation                   true          :
          :  PC potential                    false          :
          :  electronic temp.          300.0000000     K    :
          :  accuracy                    0.2000000          :
          :  -> integral cutoff          0.3198970E+02      :
          :  -> integral neglect         0.2000000E-08      :
          :  -> SCF convergence          0.2000000E-06 Eh   :
          :  -> wf. convergence          0.2000000E-04 e    :
          :  Broyden damping             0.4000000          :
          :  net charge                          0          :
          :  unpaired electrons                  0          :
          ...................................................

 iter      E             dE          RMSdq      gap      omega  full diag
   1    -80.7359896 -0.807360E+02  0.495E+00    1.05       0.0  T
   2    -80.9397625 -0.203773E+00  0.258E+00    0.36       1.0  T
   3    -80.9446442 -0.488166E-02  0.119E+00    0.28       1.0  T
   4    -80.8289667  0.115677E+00  0.162E+00    0.16       1.0  T
   5    -80.9476194 -0.118653E+00  0.311E-01    0.45       1.0  T
   6    -80.9498935 -0.227416E-02  0.164E-01    0.32       1.0  T
   7    -80.9499284 -0.348183E-04  0.141E-01    0.30       1.0  T
   8    -80.9502772 -0.348866E-03  0.878E-02    0.22       1.0  T
   9    -80.9504742 -0.197005E-03  0.471E-02    0.18       1.0  T
  10    -80.9505477 -0.734926E-04  0.139E-02    0.16       1.1  T
  11    -80.9505539 -0.616659E-05  0.255E-03    0.15       5.7  T
  12    -80.9505540 -0.128377E-06  0.112E-03    0.15      13.0  T
  13    -80.9505540 -0.324698E-08  0.730E-04    0.15      20.0  T
  14    -80.9505540 -0.741488E-08  0.349E-04    0.15      41.9  T
  15    -80.9505540 -0.320563E-08  0.132E-04    0.15     110.3  T
  16    -80.9505540 -0.126775E-09  0.972E-05    0.15     150.1  T

   *** convergence criteria satisfied after 16 iterations ***

         #    Occupation            Energy/Eh            Energy/eV
      -------------------------------------------------------------
         1        2.0000           -0.7797431             -21.2179
       ...           ...                  ...                  ...
        65        2.0000           -0.4222995             -11.4914
        66        2.0000           -0.4137189             -11.2579
        67        2.0000           -0.4085945             -11.1184
        68        2.0000           -0.4032359             -10.9726
        69        2.0000           -0.4008029             -10.9064
        70        2.0000           -0.3822910             -10.4027
        71        0.9510           -0.3267737              -8.8920 (HOMO)
        72        0.0490           -0.3211372              -8.7386 (LUMO)
        73                         -0.2495083              -6.7895
        74                         -0.2401735              -6.5355
        75                         -0.2276729              -6.1953
        76                         -0.2206054              -6.0030
       ...                                ...                  ...
       128                          0.6614738              17.9996
      -------------------------------------------------------------
                  HL-Gap            0.0056365 Eh            0.1534 eV
             Fermi-level           -0.3392439 Eh           -9.2313 eV

 SCC (total)                   0 d,  0 h,  0 min,  0.088 sec
 SCC setup                      ...        0 min,  0.002 sec (  2.097%)
 Dispersion                     ...        0 min,  0.001 sec (  0.924%)
 classical contributions        ...        0 min,  0.000 sec (  0.119%)
 integral evaluation            ...        0 min,  0.008 sec (  9.456%)
 iterations                     ...        0 min,  0.051 sec ( 57.466%)
 molecular gradient             ...        0 min,  0.026 sec ( 29.155%)
 printout                       ...        0 min,  0.001 sec (  0.750%)

         :::::::::::::::::::::::::::::::::::::::::::::::::::::
         ::                     SUMMARY                     ::
         :::::::::::::::::::::::::::::::::::::::::::::::::::::
         :: total energy             -79.897785320367 Eh    ::
         :: total w/o Gsasa/hb       -79.894952165888 Eh    ::
         :: gradient norm              0.042913804885 Eh/a0 ::
         :: HOMO-LUMO gap              0.153377166032 eV    ::
         ::.................................................::
         :: SCC energy               -80.948714327375 Eh    ::
         :: -> isotropic ES            0.183955689517 Eh    ::
         :: -> anisotropic ES          0.002789537221 Eh    ::
         :: -> anisotropic XC          0.021301533220 Eh    ::
         :: -> dispersion             -0.056499203149 Eh    ::
         :: -> Gsolv                  -0.034204919509 Eh    ::
         ::    -> Gelec               -0.031371765031 Eh    ::
         ::    -> Gsasa                0.002562742635 Eh    ::
         ::    -> Ghb                 -0.006476656811 Eh    ::
         ::    -> Gshift               0.001080759698 Eh    ::
         :: repulsion energy           1.050929007009 Eh    ::
         :: add. restraining           0.000000000000 Eh    ::
         :: total charge              -0.000000000000 e     ::
         :::::::::::::::::::::::::::::::::::::::::::::::::::::


Property printout bound to 'properties.out'

           -------------------------------------------------
          | TOTAL ENERGY              -79.897785320367 Eh   |
          | GRADIENT NORM               0.042913804885 Eh/α |
          | HOMO-LUMO GAP               0.153377166032 eV   |
           -------------------------------------------------

------------------------------------------------------------------------
 * finished run on 2025/07/16 at 15:48:04.249     
------------------------------------------------------------------------
 total:
 * wall-time:     0 d,  0 h,  0 min,  0.121 sec
 *  cpu-time:     0 d,  0 h,  0 min,  0.077 sec
 * ratio c/w:     0.635 speedup
 SCF:
 * wall-time:     0 d,  0 h,  0 min,  0.095 sec
 *  cpu-time:     0 d,  0 h,  0 min,  0.066 sec
 * ratio c/w:     0.695 speedup


-------------------------   --------------------
FINAL SINGLE POINT ENERGY       -79.897785320370
-------------------------   --------------------


-------------
DIPOLE MOMENT
-------------
                                X             Y             Z
Total Dipole Moment    :     -1.58800      -2.26300      -0.67100
                        -----------------------------------------
Magnitude (a.u.)       :      2.84485
Magnitude (Debye)      :      7.23103


------------------
CARTESIAN GRADIENT
------------------

   1   H   :    0.000176721   -0.000249904    0.000257244
   2   H   :   -0.000437157   -0.000650051    0.000343478
   3   H   :   -0.000159872   -0.000348410   -0.000422314
   4   H   :   -0.000192991   -0.000295452   -0.000129871
   5   H   :   -0.000240543   -0.001133635    0.000359297
   6   H   :   -0.000080691    0.000184465   -0.000302575
   7   H   :   -0.000111637   -0.000722716    0.000021024
   8   H   :   -0.001298897    0.000359431   -0.000431740
   9   H   :    0.000115017   -0.000528527   -0.000504589
  10   H   :   -0.000067898   -0.000209567   -0.000306103
  11   H   :   -0.000116290    0.000077024   -0.000381356
  12   H   :   -0.001140431    0.001036095   -0.000152347
  13   H   :   -0.000089186   -0.000744686   -0.000131323
  14   N   :    0.000975432    0.000846685    0.000307281
  15   C   :   -0.000672268    0.001756323   -0.000934670
  16   C   :    0.018804855    0.006298103   -0.004004533
  17   C   :    0.002084723   -0.001274763    0.000671625
  18   O   :   -0.011843189   -0.009396106    0.003957466
  19   C   :   -0.000066283   -0.000242107    0.000869039
  20   C   :    0.000148824   -0.000325078    0.000595776
  21   C   :    0.000227873    0.000063220    0.000175973
  22   C   :    0.000660559   -0.000349361    0.001477553
  23   C   :    0.000239934    0.001111374    0.000096890
  24   C   :    0.000135651    0.000461776   -0.000182625
  25   O   :    0.000797391   -0.004111307   -0.001060978
  26   C   :   -0.001376383    0.006101258   -0.001410822
  27   C   :    0.000406954    0.000484094   -0.001087324
  28   C   :    0.000926354    0.000313190   -0.001003489
  29   C   :    0.000143825    0.001219623    0.000056602
  30   C   :   -0.000514516    0.000096034    0.000790364
  31   C   :   -0.000788677    0.000282665    0.002071840
  32   C   :   -0.000935229   -0.005040585   -0.001220626
  33   N   :    0.002921201    0.020702812    0.005781462
  34   O   :   -0.000090956   -0.007380772   -0.010213349
  35   O   :   -0.001747223   -0.008633908    0.005103128
  36   C   :    0.001227296   -0.001869030    0.000426155
  37   N   :   -0.006670800    0.002842172    0.000215561
  38   H   :    0.000407055    0.000432073   -0.000129413
  39   H   :    0.000417431   -0.000855006    0.000184203
  40   H   :   -0.000789892    0.000543384   -0.000848622
  41   H   :   -0.000551727    0.000886187    0.000574701
  42   C   :   -0.007133332   -0.010944575    0.001253268
  43   O   :    0.004590085    0.008233904   -0.001339045
  44   C   :    0.000681188    0.000688982    0.001341778
  45   H   :    0.000112781    0.000014263    0.000149804
  46   H   :    0.000330444   -0.000124736   -0.000240226
  47   H   :    0.000584474    0.000395145   -0.000643571

Difference to translation invariance:
           :   -0.0000000000    0.0000000000   -0.0000000000

Difference to rotation invariance:
           :    0.0000306981    0.0000330498   -0.0000481027

Norm of the Cartesian gradient     ...    0.0429138049
RMS gradient                       ...    0.0036139943
MAX gradient                       ...    0.0207028122
------------------------------------------------------------------------------
                         ORCA GEOMETRY RELAXATION STEP
------------------------------------------------------------------------------

Reading the OPT-File                    .... done
Getting information on internals        .... done
Copying old internal coords+grads       .... done
Making the new internal coordinates     .... (2022 redundants) done
Validating the new internal coordinates .... (2022 redundants) done
Calculating the B-matrix                .... done
Calculating the G,G- and P matrices     .... done
Transforming gradient to internals      .... done
Projecting the internal gradient        .... done
Number of atoms                         ....  47
Number of internal coordinates          .... 227
Current Energy                          ....   -79.897785320 Eh
Current gradient norm                   ....     0.042913805 Eh/bohr
Maximum allowed component of the step   ....  0.300
Current trust radius                    ....  0.300
Evaluating the initial hessian          ....  (Almloef) done
Projecting the Hessian                  .... done
Forming the augmented Hessian           .... done
Diagonalizing the augmented Hessian     .... done
Last element of RFO vector              ....  0.987778380
Lowest eigenvalues of augmented Hessian:
 -0.001480141  0.010175407  0.011653457  0.012226503  0.012442164
Length of the computed step             ....  0.157793406
The final length of the internal step   ....  0.157793406
Converting the step to Cartesian space:
 Initial RMS(Int)=    0.0104731162
Transforming coordinates:
 Iter   0:  RMS(Cart)=    0.0966479421 RMS(Int)=    0.4170517329
 Iter   5:  RMS(Cart)=    0.0000000537 RMS(Int)=    0.0000000403
done
Storing new coordinates                 .... done

                                .--------------------.
          ----------------------|Geometry convergence|-------------------------
          Item                value                   Tolerance       Converged
          ---------------------------------------------------------------------
          RMS gradient        0.0018686533            0.0001000000      NO
          MAX gradient        0.0155501946            0.0003000000      NO
          RMS step            0.0104731162            0.0020000000      NO
          MAX step            0.0665010824            0.0040000000      NO
          -------------------------------------------------------------------------
          ........................................................
          Max(Bonds)      0.0171      Max(Angles)    0.60
          Max(Dihed)        3.81      Max(Improp)    0.00
          ---------------------------------------------------------------------

The optimization has not yet converged - more geometry cycles are needed


    ---------------------------------------------------------------------------
                         Redundant Internal Coordinates
                            (Angstroem and degrees)

        Definition                    Value    dE/dq     Step     New-Value
    ----------------------------------------------------------------------------
     1. B(N  13,H  11)                1.0246 -0.000120 -0.0002    1.0244   
     2. B(C  14,N  13)                1.3646 -0.000173  0.0006    1.3652   
     3. B(C  15,C  14)                1.4491 -0.000401  0.0011    1.4502   
     4. B(C  16,C  14)                1.4877  0.000259 -0.0003    1.4874   
     5. B(C  16,H   3)                1.0930  0.000296 -0.0004    1.0926   
     6. B(C  16,H   7)                1.0921  0.001390 -0.0021    1.0901   
     7. B(O  17,C  15)                1.2371 -0.015550  0.0084    1.2455   
     8. B(O  17,H  11)                1.9974 -0.001026  0.0130    2.0104   
     9. B(C  18,C  16)                1.5144  0.000113 -0.0001    1.5143   
    10. B(C  19,C  18)                1.3908 -0.000055  0.0001    1.3909   
    11. B(C  19,H   5)                1.0806  0.000266 -0.0004    1.0802   
    12. B(C  20,C  19)                1.3778 -0.000348  0.0003    1.3781   
    13. B(C  20,H   2)                1.0783 -0.000565  0.0008    1.0791   
    14. B(C  21,C  20)                1.3936 -0.000394  0.0004    1.3940   
    15. B(C  22,C  21)                1.3896 -0.000171  0.0002    1.3897   
    16. B(C  22,H   6)                1.0785  0.000700 -0.0010    1.0775   
    17. B(C  23,C  22)                1.3827 -0.000230  0.0002    1.3829   
    18. B(C  23,C  18)                1.3850 -0.000843  0.0007    1.3857   
    19. B(C  23,H   9)                1.0788  0.000365 -0.0005    1.0783   
    20. B(O  24,C  21)                1.3680 -0.002118  0.0019    1.3699   
    21. B(C  25,O  24)                1.4098 -0.005198  0.0053    1.4151   
    22. B(C  25,H   4)                1.0997  0.000976 -0.0015    1.0982   
    23. B(C  25,H   0)                1.0959  0.000267 -0.0004    1.0955   
    24. B(C  26,C  25)                1.5105 -0.000269  0.0003    1.5108   
    25. B(C  27,C  26)                1.3905  0.000181 -0.0002    1.3903   
    26. B(C  27,H   1)                1.0805  0.000826 -0.0012    1.0793   
    27. B(C  28,C  27)                1.3831 -0.000807  0.0007    1.3838   
    28. B(C  28,H  12)                1.0792  0.000761 -0.0011    1.0782   
    29. B(C  29,C  28)                1.3858 -0.000915  0.0008    1.3866   
    30. B(C  29,H   8)                1.0782  0.000652 -0.0009    1.0773   
    31. B(C  30,C  29)                1.3794  0.000180 -0.0001    1.3793   
    32. B(C  30,H  10)                1.0786  0.000177 -0.0002    1.0784   
    33. B(C  31,C  30)                1.3905 -0.001440  0.0012    1.3917   
    34. B(C  31,C  26)                1.3963 -0.001134  0.0009    1.3972   
    35. B(N  32,C  31)                1.4421  0.004873 -0.0056    1.4365   
    36. B(O  33,N  32)                1.2101 -0.011918  0.0065    1.2166   
    37. B(O  34,N  32)                1.2162 -0.009823  0.0054    1.2217   
    38. B(N  36,C  35)                1.4390 -0.001372  0.0015    1.4406   
    39. B(N  36,C  15)                1.3615  0.006282 -0.0053    1.3562   
    40. B(H  37,N  36)                1.0054 -0.000598  0.0007    1.0061   
    41. B(H  38,C  35)                1.0890 -0.000070  0.0001    1.0891   
    42. B(H  39,C  35)                1.0922  0.001180 -0.0017    1.0905   
    43. B(H  40,C  35)                1.0927  0.001091 -0.0016    1.0910   
    44. B(C  41,N  13)                1.3712  0.001117 -0.0010    1.3702   
    45. B(O  42,C  41)                1.2150 -0.009514  0.0047    1.2197   
    46. B(C  43,C  41)                1.5070  0.001914 -0.0025    1.5045   
    47. B(H  44,O  34)                2.4029 -0.000444  0.0171    2.4200   
    48. B(H  44,C  43)                1.0901 -0.000197  0.0002    1.0903   
    49. B(H  45,C  43)                1.0864  0.000292 -0.0004    1.0860   
    50. B(H  46,C  43)                1.0865  0.000889 -0.0013    1.0852   
    51. A(H  11,N  13,C  41)          119.08  0.000780   -0.20    118.89   
    52. A(C  14,N  13,C  41)          131.11 -0.000442    0.01    131.12   
    53. A(H  11,N  13,C  14)          109.80 -0.000338    0.18    109.99   
    54. A(N  13,C  14,C  15)          111.44  0.000137    0.23    111.67   
    55. A(N  13,C  14,C  16)          120.43 -0.001997    0.22    120.65   
    56. A(C  15,C  14,C  16)          127.77  0.001841   -0.37    127.40   
    57. A(O  17,C  15,N  36)          121.84 -0.001240    0.09    121.93   
    58. A(C  14,C  15,O  17)          119.74  0.000215    0.12    119.86   
    59. A(C  14,C  15,N  36)          118.42  0.001025   -0.21    118.21   
    60. A(H   3,C  16,H   7)          108.22 -0.000222    0.03    108.25   
    61. A(H   3,C  16,C  14)          109.24  0.000074   -0.00    109.23   
    62. A(C  14,C  16,C  18)          109.43 -0.000679    0.17    109.60   
    63. A(H   3,C  16,C  18)          107.79  0.000267   -0.02    107.77   
    64. A(H   7,C  16,C  14)          111.46  0.000355   -0.09    111.37   
    65. A(H   7,C  16,C  18)          110.62  0.000211   -0.09    110.54   
    66. A(C  16,C  18,C  23)          120.76 -0.000353    0.06    120.82   
    67. A(C  19,C  18,C  23)          118.77  0.000288   -0.04    118.74   
    68. A(C  16,C  18,C  19)          120.38  0.000056    0.01    120.39   
    69. A(C  18,C  19,C  20)          120.69  0.000021   -0.00    120.69   
    70. A(H   5,C  19,C  18)          119.90 -0.000261    0.04    119.94   
    71. A(H   5,C  19,C  20)          119.37  0.000240   -0.04    119.34   
    72. A(H   2,C  20,C  21)          118.48  0.000200   -0.03    118.45   
    73. A(C  19,C  20,C  21)          120.16 -0.000240    0.03    120.19   
    74. A(H   2,C  20,C  19)          121.33  0.000036    0.00    121.33   
    75. A(C  22,C  21,O  24)          124.87 -0.000529    0.07    124.94   
    76. A(C  20,C  21,O  24)          115.79  0.000446   -0.05    115.74   
    77. A(C  20,C  21,C  22)          119.33  0.000079   -0.01    119.32   
    78. A(C  21,C  22,C  23)          119.84  0.000158   -0.02    119.82   
    79. A(H   6,C  22,C  23)          119.10 -0.000294    0.05    119.14   
    80. A(H   6,C  22,C  21)          121.05  0.000136   -0.02    121.02   
    81. A(C  18,C  23,C  22)          121.01 -0.000305    0.05    121.05   
    82. A(H   9,C  23,C  22)          119.13  0.000243   -0.03    119.10   
    83. A(H   9,C  23,C  18)          119.83  0.000059   -0.00    119.82   
    84. A(C  21,O  24,C  25)          118.88 -0.002492    0.34    119.22   
    85. A(H   0,C  25,H   4)          108.43 -0.000271    0.01    108.44   
    86. A(O  24,C  25,C  26)          114.77 -0.002192    0.34    115.11   
    87. A(H   4,C  25,C  26)          108.93 -0.000010    0.12    109.05   
    88. A(H   0,C  25,C  26)          109.95  0.000498   -0.14    109.81   
    89. A(H   4,C  25,O  24)          110.42  0.000710   -0.05    110.37   
    90. A(H   0,C  25,O  24)          104.11  0.001390   -0.31    103.80   
    91. A(C  27,C  26,C  31)          117.45  0.000295   -0.03    117.42   
    92. A(C  25,C  26,C  31)          123.04 -0.000668    0.07    123.11   
    93. A(C  25,C  26,C  27)          119.40  0.000374   -0.03    119.36   
    94. A(C  26,C  27,C  28)          121.51 -0.000045   -0.00    121.51   
    95. A(H   1,C  27,C  28)          119.63 -0.000203    0.04    119.67   
    96. A(H   1,C  27,C  26)          118.86  0.000246   -0.03    118.83   
    97. A(C  27,C  28,C  29)          120.21 -0.000261    0.04    120.24   
    98. A(H  12,C  28,C  29)          120.12  0.000154   -0.02    120.10   
    99. A(H  12,C  28,C  27)          119.66  0.000105   -0.01    119.64   
   100. A(C  28,C  29,C  30)          119.39 -0.000029    0.01    119.40   
   101. A(H   8,C  29,C  30)          120.11  0.000343   -0.06    120.05   
   102. A(H   8,C  29,C  28)          120.50 -0.000314    0.05    120.55   
   103. A(C  29,C  30,C  31)          120.14  0.000383   -0.05    120.09   
   104. A(H  10,C  30,C  31)          118.59 -0.000067    0.01    118.60   
   105. A(H  10,C  30,C  29)          121.26 -0.000315    0.05    121.31   
   106. A(C  30,C  31,N  32)          116.49 -0.000007    0.02    116.51   
   107. A(C  26,C  31,N  32)          122.26  0.000350   -0.06    122.20   
   108. A(C  26,C  31,C  30)          121.22 -0.000353    0.06    121.28   
   109. A(O  33,N  32,O  34)          124.90  0.005735   -0.60    124.29   
   110. A(C  31,N  32,O  34)          117.02 -0.002455    0.40    117.41   
   111. A(C  31,N  32,O  33)          117.99 -0.003391    0.51    118.49   
   112. A(N  36,C  35,H  38)          107.23 -0.001756    0.33    107.56   
   113. A(H  39,C  35,H  40)          109.08 -0.000447    0.03    109.11   
   114. A(H  38,C  35,H  40)          109.33  0.000205   -0.02    109.31   
   115. A(N  36,C  35,H  40)          111.02  0.000826   -0.16    110.87   
   116. A(H  38,C  35,H  39)          109.43  0.000257   -0.01    109.42   
   117. A(N  36,C  35,H  39)          110.71  0.000901   -0.16    110.55   
   118. A(C  35,N  36,H  37)          117.82  0.000906   -0.13    117.69   
   119. A(C  15,N  36,H  37)          120.11  0.001064   -0.15    119.96   
   120. A(C  15,N  36,C  35)          121.91 -0.001971    0.29    122.20   
   121. A(O  42,C  41,C  43)          124.02  0.000547   -0.08    123.94   
   122. A(N  13,C  41,C  43)          112.24 -0.001543    0.21    112.44   
   123. A(N  13,C  41,O  42)          123.74  0.000998   -0.13    123.61   
   124. A(H  45,C  43,H  46)          109.85 -0.000461    0.11    109.96   
   125. A(H  44,C  43,H  46)          108.93 -0.000196    0.02    108.96   
   126. A(C  41,C  43,H  46)          111.64  0.000246   -0.04    111.60   
   127. A(H  44,C  43,H  45)          109.01 -0.000107   -0.01    109.01   
   128. A(C  41,C  43,H  45)          109.48  0.000138   -0.02    109.46   
   129. A(C  41,C  43,H  44)          107.87  0.000386   -0.07    107.79   
   130. D(C  16,C  14,N  13,C  41)      9.40  0.000292   -0.76      8.64   
   131. D(C  15,C  14,N  13,C  41)   -176.92  0.000263   -0.09   -177.01   
   132. D(C  16,C  14,N  13,H  11)   -171.50  0.000320   -0.87   -172.37   
   133. D(C  15,C  14,N  13,H  11)      2.18  0.000291   -0.20      1.98   
   134. D(N  36,C  15,C  14,N  13)   -176.03  0.000451   -1.16   -177.19   
   135. D(O  17,C  15,C  14,C  16)    177.43  0.000063   -0.21    177.22   
   136. D(N  36,C  15,C  14,C  16)     -2.92  0.000105   -0.38     -3.30   
   137. D(O  17,C  15,C  14,N  13)      4.33  0.000409   -0.99      3.33   
   138. D(H   7,C  16,C  14,C  15)     11.63  0.000295   -0.79     10.84   
   139. D(C  18,C  16,C  14,N  13)     61.50  0.000047    0.10     61.60   
   140. D(H   3,C  16,C  14,C  15)    131.16  0.000289   -0.81    130.35   
   141. D(H   3,C  16,C  14,N  13)    -56.29  0.000075    0.03    -56.25   
   142. D(H   7,C  16,C  14,N  13)   -175.82  0.000081    0.05   -175.77   
   143. D(C  19,C  18,C  16,H   3)    160.56  0.000110   -0.57    159.98   
   144. D(C  19,C  18,C  16,H   7)    -81.31  0.000121   -0.59    -81.90   
   145. D(C  19,C  18,C  16,C  14)     41.87  0.000246   -0.65     41.22   
   146. D(C  23,C  18,C  16,H   7)    102.10  0.000289   -1.19    100.91   
   147. D(C  23,C  18,C  16,H   3)    -16.03  0.000278   -1.17    -17.20   
   148. D(C  20,C  19,C  18,C  16)   -173.25  0.000158   -0.59   -173.84   
   149. D(H   5,C  19,C  18,C  23)   -178.91 -0.000039    0.14   -178.77   
   150. D(C  20,C  19,C  18,C  23)      3.41 -0.000028   -0.00      3.40   
   151. D(H   5,C  19,C  18,C  16)      4.44  0.000148   -0.45      3.99   
   152. D(C  21,C  20,C  19,C  18)     -0.05  0.000072   -0.11     -0.16   
   153. D(C  21,C  20,C  19,H   5)   -177.74  0.000094   -0.26   -178.00   
   154. D(H   2,C  20,C  19,C  18)    177.55 -0.000028    0.16    177.71   
   155. D(H   2,C  20,C  19,H   5)     -0.14 -0.000006    0.01     -0.13   
   156. D(O  24,C  21,C  20,C  19)    175.11 -0.000211    0.61    175.71   
   157. D(O  24,C  21,C  20,H   2)     -2.56 -0.000110    0.34     -2.22   
   158. D(C  22,C  21,C  20,C  19)     -3.84 -0.000023    0.12     -3.72   
   159. D(C  22,C  21,C  20,H   2)    178.49  0.000078   -0.14    178.35   
   160. D(H   6,C  22,C  21,C  20)   -177.38 -0.000041    0.11   -177.27   
   161. D(C  23,C  22,C  21,O  24)   -174.52  0.000164   -0.55   -175.07   
   162. D(C  23,C  22,C  21,C  20)      4.33 -0.000030   -0.02      4.31   
   163. D(H   6,C  22,C  21,O  24)      3.77  0.000153   -0.42      3.36   
   164. D(C  18,C  23,C  22,C  21)     -0.96  0.000068   -0.10     -1.05   
   165. D(C  18,C  23,C  22,H   6)   -179.28  0.000072   -0.23   -179.51   
   166. D(H   9,C  23,C  22,C  21)    176.94 -0.000043    0.21    177.15   
   167. D(H   9,C  23,C  22,H   6)     -1.38 -0.000039    0.08     -1.30   
   168. D(C  22,C  23,C  18,C  19)     -2.91 -0.000032    0.11     -2.80   
   169. D(C  22,C  23,C  18,C  16)    173.73 -0.000205    0.70    174.43   
   170. D(H   9,C  23,C  18,C  19)    179.21  0.000076   -0.20    179.01   
   171. D(H   9,C  23,C  18,C  16)     -4.15 -0.000098    0.39     -3.76   
   172. D(C  25,O  24,C  21,C  22)     20.66  0.000421   -0.71     19.95   
   173. D(C  25,O  24,C  21,C  20)   -158.22  0.000612   -1.22   -159.44   
   174. D(C  26,C  25,O  24,C  21)     44.33 -0.000490    0.49     44.83   
   175. D(H   4,C  25,O  24,C  21)    -79.24  0.000606    0.12    -79.12   
   176. D(H   0,C  25,O  24,C  21)    164.56 -0.000156    0.30    164.86   
   177. D(C  31,C  26,C  25,H   4)    160.91  0.000415   -1.81    159.10   
   178. D(C  31,C  26,C  25,H   0)    -80.40  0.000372   -1.81    -82.21   
   179. D(C  27,C  26,C  25,O  24)   -139.40  0.001052   -2.27   -141.67   
   180. D(C  27,C  26,C  25,H   4)    -15.03  0.000380   -2.00    -17.03   
   181. D(C  27,C  26,C  25,H   0)    103.66  0.000338   -2.00    101.66   
   182. D(C  28,C  27,C  26,C  31)     -0.87 -0.000270    0.42     -0.45   
   183. D(C  28,C  27,C  26,C  25)    175.30 -0.000276    0.60    175.90   
   184. D(H   1,C  27,C  26,C  31)    179.93 -0.000093    0.10    180.03   
   185. D(H   1,C  27,C  26,C  25)     -3.91 -0.000099    0.29     -3.62   
   186. D(C  29,C  28,C  27,C  26)     -1.57  0.000074   -0.12     -1.69   
   187. D(C  29,C  28,C  27,H   1)    177.63 -0.000101    0.19    177.82   
   188. D(H  12,C  28,C  27,C  26)    179.78  0.000146   -0.26    179.52   
   189. D(H  12,C  28,C  27,H   1)     -1.02 -0.000029    0.06     -0.96   
   190. D(C  30,C  29,C  28,H  12)   -179.32  0.000052   -0.08   -179.40   
   191. D(H   8,C  29,C  28,C  27)   -178.10  0.000102   -0.19   -178.29   
   192. D(H   8,C  29,C  28,H  12)      0.55  0.000030   -0.05      0.49   
   193. D(C  30,C  29,C  28,C  27)      2.03  0.000125   -0.21      1.82   
   194. D(C  31,C  30,C  29,C  28)     -0.05 -0.000123    0.23      0.18   
   195. D(C  31,C  30,C  29,H   8)   -179.92 -0.000100    0.21   -179.71   
   196. D(H  10,C  30,C  29,C  28)    179.09 -0.000029    0.02    179.11   
   197. D(H  10,C  30,C  29,H   8)     -0.78 -0.000006    0.00     -0.78   
   198. D(N  32,C  31,C  30,C  29)    175.46 -0.000403    0.80    176.26   
   199. D(N  32,C  31,C  30,H  10)     -3.70 -0.000493    1.00     -2.70   
   200. D(C  26,C  31,C  30,C  29)     -2.45 -0.000074    0.07     -2.38   
   201. D(C  26,C  31,C  30,H  10)    178.38 -0.000164    0.28    178.66   
   202. D(N  32,C  31,C  26,C  27)   -174.92  0.000620   -1.16   -176.08   
   203. D(N  32,C  31,C  26,C  25)      9.06  0.000582   -1.35      7.72   
   204. D(C  30,C  31,C  26,C  27)      2.87  0.000264   -0.39      2.48   
   205. D(C  30,C  31,C  26,C  25)   -173.14  0.000225   -0.58   -173.72   
   206. D(O  34,N  32,C  31,C  30)     36.05 -0.000371    1.31     37.37   
   207. D(O  34,N  32,C  31,C  26)   -146.06 -0.000720    2.05   -144.01   
   208. D(O  33,N  32,C  31,C  30)   -140.44  0.001289   -3.81   -144.25   
   209. D(O  33,N  32,C  31,C  26)     37.45  0.000940   -3.07     34.38   
   210. D(H  37,N  36,C  35,H  39)    -62.37 -0.000212    0.17    -62.19   
   211. D(H  37,N  36,C  35,H  38)    178.31  0.000033    0.09    178.40   
   212. D(C  15,N  36,C  35,H  40)   -116.46  0.000342   -0.07   -116.52   
   213. D(C  15,N  36,C  35,H  39)    122.23 -0.000262    0.11    122.34   
   214. D(C  15,N  36,C  35,H  38)      2.91 -0.000017    0.02      2.93   
   215. D(H  37,N  36,C  15,O  17)   -176.36  0.000029   -0.16   -176.52   
   216. D(H  37,N  36,C  15,C  14)      4.00 -0.000020    0.01      4.01   
   217. D(C  35,N  36,C  15,O  17)     -1.06  0.000069   -0.09     -1.16   
   218. D(C  35,N  36,C  15,C  14)    179.30  0.000020    0.08    179.38   
   219. D(C  43,C  41,N  13,C  14)   -173.17  0.000147   -0.52   -173.68   
   220. D(C  43,C  41,N  13,H  11)      7.81  0.000126   -0.40      7.41   
   221. D(O  42,C  41,N  13,C  14)      6.03  0.000254   -0.57      5.46   
   222. D(O  42,C  41,N  13,H  11)   -173.00  0.000233   -0.45   -173.45   
   223. D(H  46,C  43,C  41,N  13)    -39.78 -0.000186    0.16    -39.62   
   224. D(H  45,C  43,C  41,O  42)     19.17  0.000027    0.11     19.27   
   225. D(H  45,C  43,C  41,N  13)   -161.64  0.000138    0.05   -161.58   
   226. D(H  44,C  43,C  41,O  42)    -99.33 -0.000145    0.17    -99.16   
   227. D(H  44,C  43,C  41,N  13)     79.87 -0.000033    0.12     79.98   
    ----------------------------------------------------------------------------

Geometry step timings:
Preparation and reading OPT file:      0.000 s ( 0.146 %)
Internal coordinates            :      0.000 s ( 0.174 %)
B/P matrices and projection     :      0.005 s (34.309 %)
Hessian update/contruction      :      0.002 s (16.033 %)
Making the step                 :      0.006 s (40.782 %)
Converting the step to Cartesian:      0.001 s ( 3.881 %)
Storing new data                :      0.000 s ( 0.307 %)
Checking convergence            :      0.000 s ( 0.411 %)
Final printing                  :      0.001 s ( 3.944 %)
Total time                      :      0.014 s

Time for energy+gradient        :      0.128 s
Time for complete geometry iter :      0.143 s

         *************************************************************
         *                GEOMETRY OPTIMIZATION CYCLE   2            *
         *************************************************************
---------------------------------
CARTESIAN COORDINATES (ANGSTROEM)
---------------------------------
  H    -0.485860   -0.658438    4.685862
  H    -0.861163   -3.425534    3.090098
  H    -1.727206    2.755420    2.412666
  H    -2.815233    0.726838   -2.534023
  H    -1.856536   -1.521120    3.948156
  H    -2.366686    3.336718    0.100374
  H    -2.380999   -1.373905    1.541282
  H    -3.965425    1.993571   -2.086585
  H     2.024434   -3.161673   -0.044824
  H    -2.966955   -0.802459   -0.748999
  H     2.208515   -0.722588    0.359093
  H    -0.083486    3.221670   -2.621804
  H     0.512330   -4.511901    1.374830
  N    -0.618545    2.376631   -2.400486
  C    -1.954863    2.655664   -2.405943
  C    -2.212004    4.036951   -2.764981
  C    -2.942815    1.641488   -1.950215
  O    -1.265233    4.782128   -3.080566
  C    -2.686813    1.301580   -0.496953
  C    -2.368786    2.303075    0.414233
  C    -2.011232    1.989410    1.707611
  C    -1.967455    0.658421    2.119584
  C    -2.362337   -0.340276    1.237557
  C    -2.707054   -0.013666   -0.061293
  O    -1.513265    0.444991    3.394164
  C    -1.023190   -0.834551    3.747626
  C    -0.095339   -1.467488    2.737161
  C    -0.175687   -2.835307    2.501248
  C     0.593052   -3.447594    1.527086
  C     1.444297   -2.694117    0.733259
  C     1.545665   -1.335589    0.948811
  C     0.801046   -0.731730    1.957648
  N     1.027315    0.670994    2.169293
  O     0.980978    1.099854    3.306847
  O     1.225193    1.362587    1.181795
  C    -3.847614    5.831342   -3.083720
  N    -3.495935    4.473610   -2.754799
  H    -4.232178    3.862049   -2.444772
  H    -2.932132    6.348145   -3.368123
  H    -4.550377    5.853509   -3.917224
  H    -4.294975    6.335644   -2.225856
  C     0.056463    1.205548   -2.175763
  O    -0.493843    0.128190   -2.020266
  C     1.547017    1.402784   -2.122235
  H     1.797270    1.783599   -1.131711
  H     2.043814    0.448496   -2.270157
  H     1.882834    2.115032   -2.868957

----------------------------
CARTESIAN COORDINATES (A.U.)
----------------------------
  NO LB    ZA    FRAG    MASS        X           Y           Z
   0 H   1.0000    0     1.008   -0.918143   -1.244268    8.854996
   1 H   1.0000    0     1.008   -1.627361   -6.473321    5.839439
   2 H   1.0000    0     1.008   -3.263947    5.206990    4.559279
   3 H   1.0000    0     1.008   -5.320020    1.373525   -4.788610
   4 H   1.0000    0     1.008   -3.508344   -2.874500    7.460933
   5 H   1.0000    0     1.008   -4.472389    6.305484    0.189680
   6 H   1.0000    0     1.008   -4.499437   -2.596305    2.912601
   7 H   1.0000    0     1.008   -7.493567    3.767302   -3.943075
   8 H   1.0000    0     1.008    3.825626   -5.974696   -0.084704
   9 H   1.0000    0     1.008   -5.606733   -1.516428   -1.415402
  10 H   1.0000    0     1.008    4.173488   -1.365494    0.678588
  11 H   1.0000    0     1.008   -0.157765    6.088074   -4.954492
  12 H   1.0000    0     1.008    0.968163   -8.526258    2.598052
[...]
  26 C   6.0000    0    12.011   -0.202317   -2.694570    5.184520
  27 C   6.0000    0    12.011   -0.263035   -5.294466    4.803396
  28 C   6.0000    0    12.011    1.195151   -6.445488    2.963572
  29 C   6.0000    0    12.011    2.715903   -5.000697    1.390573
  30 C   6.0000    0    12.011    2.825839   -2.422013    1.735182
  31 C   6.0000    0    12.011    1.425395   -1.277559    3.653185
  32 N   7.0000    0    14.007    1.797669    1.362537    3.999455
  33 O   8.0000    0    15.999    1.702354    2.240499    6.137401
  34 O   8.0000    0    15.999    2.305441    2.645268    2.130551
  35 C   6.0000    0    12.011   -7.185138   11.045853   -5.624456
  36 N   7.0000    0    14.007   -6.516687    8.460967   -5.080242
  37 H   1.0000    0     1.008   -7.916128    7.301931   -4.516186
  38 H   1.0000    0     1.008   -5.469803   12.039442   -6.174666
  39 H   1.0000    0     1.008   -8.547214   11.119214   -7.167523
  40 H   1.0000    0     1.008   -7.992603   11.950035   -3.957736
  41 C   6.0000    0    12.011    0.144939    2.202770   -4.183435
  42 O   8.0000    0    15.999   -0.920015    0.181717   -3.839850
  43 C   6.0000    0    12.011    2.965020    2.518263   -4.181579
  44 H   1.0000    0     1.008    3.515649    3.198224   -2.315955
  45 H   1.0000    0     1.008    3.855489    0.699355   -4.511889
  46 H   1.0000    0     1.008    3.577268    3.874302   -5.592328

      -----------------------------------------------------------      
     |                   =====================                   |     
     |                           x T B                           |     
     |                   =====================                   |     
     |                         S. Grimme                         |     
     |          Mulliken Center for Theoretical Chemistry        |     
     |                    University of Bonn                     |     
      -----------------------------------------------------------      

   * xtb version 6.7.1 (edcfbbe) compiled by 'albert@albert-system' on 2024-07-22

   xtb is free software: you can redistribute it and/or modify it under
   the terms of the GNU Lesser General Public License as published by
   the Free Software Foundation, either version 3 of the License, or
   (at your option) any later version.
   
   xtb is distributed in the hope that it will be useful,
   but WITHOUT ANY WARRANTY; without even the implied warranty of
   MERCHANTABILITY or FITNESS FOR A PARTICULAR PURPOSE.  See the
   GNU Lesser General Public License for more details.
   
   Cite this work as:
   * C. Bannwarth, E. Caldeweyher, S. Ehlert, A. Hansen, P. Pracht,
     J. Seibert, S. Spicher, S. Grimme, WIREs Comput. Mol. Sci., 2020, 11,
     e01493. DOI: 10.1002/wcms.1493
   
   for GFN2-xTB:
   * C. Bannwarth, S. Ehlert and S. Grimme., J. Chem. Theory Comput., 2019,
     15, 1652-1671. DOI: 10.1021/acs.jctc.8b01176
   for GFN1-xTB:
   * S. Grimme, C. Bannwarth, P. Shushkov, J. Chem. Theory Comput., 2017,
     13, 1989-2009. DOI: 10.1021/acs.jctc.7b00118
   for GFN0-xTB:
   * P. Pracht, E. Caldeweyher, S. Ehlert, S. Grimme, ChemRxiv, 2019, preprint.
     DOI: 10.26434/chemrxiv.8326202.v1
   for GFN-FF:
   * S. Spicher and S. Grimme, Angew. Chem. Int. Ed., 2020, 59, 15665-15673.
     DOI: 10.1002/anie.202004239
   
   for ALPB and GBSA implicit solvation:
   * S. Ehlert, M. Stahn, S. Spicher, S. Grimme, J. Chem. Theory Comput.,
     2021, 17, 4250-4261. DOI: 10.1021/acs.jctc.1c00471
   
   for ddCOSMO and CPCM-X implicit solvation:
   * M. Stahn, S. Ehlert, S. Grimme, J. Phys. Chem. A,
     2023, XX, XXXX-XXXX. DOI: 10.1021/acs.jpca.3c04382
   
   for DFT-D4:
   * E. Caldeweyher, C. Bannwarth and S. Grimme, J. Chem. Phys., 2017,
     147, 034112. DOI: 10.1063/1.4993215
   * E. Caldeweyher, S. Ehlert, A. Hansen, H. Neugebauer, S. Spicher,
     C. Bannwarth and S. Grimme, J. Chem. Phys., 2019, 150, 154122.
     DOI: 10.1063/1.5090222
   * E. Caldeweyher, J.-M. Mewes, S. Ehlert and S. Grimme, Phys. Chem. Chem. Phys.
     2020, 22, 8499-8512. DOI: 10.1039/D0CP00502A
   
   for sTDA-xTB:
   * S. Grimme and C. Bannwarth, J. Chem. Phys., 2016, 145, 054103.
     DOI: 10.1063/1.4959605
   
   in the mass-spec context:
   * V. Asgeirsson, C. Bauer and S. Grimme, Chem. Sci., 2017, 8, 4879.
     DOI: 10.1039/c7sc00601b
   * J. Koopman and S. Grimme, ACS Omega 2019, 4, 12, 15120-15133.
     DOI: 10.1021/acsomega.9b02011
   
   for metadynamics refer to:
   * S. Grimme, J. Chem. Theory Comput., 2019, 155, 2847-2862
     DOI: 10.1021/acs.jctc.9b00143
   
   for SPH calculations refer to:
   * S. Spicher and S. Grimme, J. Chem. Theory Comput., 2021, 17, 1701-1714
     DOI: 10.1021/acs.jctc.0c01306
   
   for ONIOM refer to:
   * C. Plett, A. Katbashev, S. Ehlert, S. Grimme, M. Bursch,
     Phys. Chem. Chem. Phys., 2023, 25, 17860-17868. DOI: 10.1039/D3CP02178E
   
   for DIPRO refer to:
   * J. Kohn, N. Gildemeister, S. Grimme, D. Fazzi, A. Hansen,
     J. Chem. Phys., 2023, just accepted.
   
   for PTB refer to:
   * S. Grimme, M. Mueller, A. Hansen, J. Chem. Phys., 2023, 158, 124111.
     DOI: 10.1063/5.0137838
   
   with help from (in alphabetical order)
   P. Atkinson, C. Bannwarth, F. Bohle, G. Brandenburg, E. Caldeweyher
   M. Checinski, S. Dohm, S. Ehlert, S. Ehrlich, I. Gerasimov, C. Hölzer
   A. Katbashev, J. Kohn, J. Koopman, C. Lavigne, S. Lehtola, F. März, M. Müller,
   F. Musil, H. Neugebauer, J. Pisarek, C. Plett, P. Pracht, F. Pultar,
   J. Seibert, P. Shushkov, S. Spicher, M. Stahn, M. Steiner, T. Strunk,
   J. Stückrath, T. Rose, and J. Unsleber
   
 * started run on 2025/07/16 at 15:48:05.608     
   ID    Z sym.   atoms
    1    1 H      1-13, 38-41, 45-47
    2    7 N      14, 33, 37
    3    6 C      15-17, 19-24, 26-32, 36, 42, 44
    4    8 O      18, 25, 34, 35, 43

           -------------------------------------------------
          |                Calculation Setup                |
           -------------------------------------------------

          program call               : /home/esp/bin/orca_6_1_0/otool_xtb /home/esp/scriptDevelopment/drFrankenstein/11_PCY_CHARMM/04_torsion_scanning/torsion_NH1-CT1-CG321-CG2R61/scans_PCY_conformer_34/PCY_conformer_34_opt/orca_opt_XTB.xyz --grad -c 0 -u 0 -P 1 --namespace /home/esp/scriptDevelopment/drFrankenstein/11_PCY_CHARMM/04_torsion_scanning/torsion_NH1-CT1-CG321-CG2R61/scans_PCY_conformer_34/PCY_conformer_34_opt/orca_opt --input /home/esp/scriptDevelopment/drFrankenstein/11_PCY_CHARMM/04_torsion_scanning/torsion_NH1-CT1-CG321-CG2R61/scans_PCY_conformer_34/PCY_conformer_34_opt/orca_opt_XTB.input.tmp --alpb WATER --acc 0.200000
          calculation namespace      : /home/esp/scriptDevelopment/drFrankenstein/11_PCY_CHARMM/04_torsion_scanning/torsion_NH1-CT1-CG321-CG2R61/scans_PCY_conformer_34/PCY_conformer_34_opt/orca_opt
          coordinate file            : /home/esp/scriptDevelopment/drFrankenstein/11_PCY_CHARMM/04_torsion_scanning/torsion_NH1-CT1-CG321-CG2R61/scans_PCY_conformer_34/PCY_conformer_34_opt/orca_opt_XTB.xyz
          omp threads                :                     1


           -------------------------------------------------
          |                 G F N 2 - x T B                 |
           -------------------------------------------------

        Reference                      10.1021/acs.jctc.8b01176
      * Hamiltonian:
        H0-scaling (s, p, d)           1.850000    2.230000    2.230000
        zeta-weighting                 0.500000
      * Dispersion:
        s8                             2.700000
        a1                             0.520000
        a2                             5.000000
        s9                             5.000000
      * Repulsion:
        kExp                           1.500000    1.000000
        rExp                           1.000000
      * Coulomb:
        alpha                          2.000000
        third order                    shell-resolved
        anisotropic                    true
        a3                             3.000000
        a5                             4.000000
        cn-shift                       1.200000
        cn-exp                         4.000000
        max-rad                        5.000000

      * Solvation model:               ALPB
        Solvent                        WATER
        Parameter file                 internal GFN2-xTB/ALPB
        Dielectric constant                8.0200E+01
        Reference state                gsolv [1 M gas/solution]
        Free energy shift                  1.0808E-03 Eh       6.7819E-01 kcal/mol
        Temperature                        2.9815E+02 K
        Density                            1.0000E+00 kg/L
        Solvent mass                       1.8000E+01 g/mol
        Interaction kernel             P16
        Born radius scaling (c1)           1.4744E+00
        Born radii integrator          GBOBC
        Born offset                        0.0000E+00 a0       0.0000E+00 AA
        H-bond correction              true
        Ion screening                  false
        Surface tension                    1.0000E-05 Eh       1.5569E+01 dyn/cm
        Grid points                               230 per atom
q/qsh data taken from xtbrestart
CAMM data taken from xtbrestart

          ...................................................
          :                      SETUP                      :
          :.................................................:
          :  # basis functions                 128          :
          :  # atomic orbitals                 128          :
          :  # shells                           74          :
          :  # electrons                       141          :
          :  max. iterations                   250          :
          :  Hamiltonian                  GFN2-xTB          :
          :  restarted?                       true          :
          :  GBSA solvation                   true          :
          :  PC potential                    false          :
          :  electronic temp.          300.0000000     K    :
          :  accuracy                    0.2000000          :
          :  -> integral cutoff          0.3198970E+02      :
          :  -> integral neglect         0.2000000E-08      :
          :  -> SCF convergence          0.2000000E-06 Eh   :
          :  -> wf. convergence          0.2000000E-04 e    :
          :  Broyden damping             0.4000000          :
          :  net charge                          0          :
          :  unpaired electrons                  0          :
          ...................................................

 iter      E             dE          RMSdq      gap      omega  full diag
   1    -80.9462752 -0.809463E+02  0.561E-03    0.13       0.0  T
   2    -80.9462729  0.229849E-05  0.778E-03    0.13       1.9  T
   3    -80.9462749 -0.194521E-05  0.435E-03    0.13       3.4  T
   4    -80.9462755 -0.609808E-06  0.588E-04    0.13      24.8  T
   5    -80.9462755 -0.850358E-08  0.182E-04    0.13      80.1  T
   6    -80.9462755 -0.944127E-09  0.774E-05    0.13     188.5  T

   *** convergence criteria satisfied after 6 iterations ***

         #    Occupation            Energy/Eh            Energy/eV
      -------------------------------------------------------------
         1        2.0000           -0.7716847             -20.9986
       ...           ...                  ...                  ...
        65        2.0000           -0.4224430             -11.4953
        66        2.0000           -0.4140359             -11.2665
        67        2.0000           -0.4088479             -11.1253
        68        2.0000           -0.4035808             -10.9820
        69        2.0000           -0.4026337             -10.9562
        70        2.0000           -0.3823407             -10.4040
        71        0.9261           -0.3284410              -8.9373 (HOMO)
        72        0.0739           -0.3236361              -8.8066 (LUMO)
        73                         -0.2497619              -6.7964
        74                         -0.2388127              -6.4984
        75                         -0.2280510              -6.2056
        76                         -0.2212791              -6.0213
       ...                                ...                  ...
       128                          0.6594892              17.9456
      -------------------------------------------------------------
                  HL-Gap            0.0048049 Eh            0.1307 eV
             Fermi-level           -0.3407147 Eh           -9.2713 eV

 SCC (total)                   0 d,  0 h,  0 min,  0.071 sec
 SCC setup                      ...        0 min,  0.002 sec (  3.024%)
 Dispersion                     ...        0 min,  0.001 sec (  0.752%)
 classical contributions        ...        0 min,  0.000 sec (  0.113%)
 integral evaluation            ...        0 min,  0.009 sec ( 12.215%)
 iterations                     ...        0 min,  0.033 sec ( 46.069%)
 molecular gradient             ...        0 min,  0.026 sec ( 36.666%)
 printout                       ...        0 min,  0.001 sec (  1.112%)

         :::::::::::::::::::::::::::::::::::::::::::::::::::::
         ::                     SUMMARY                     ::
         :::::::::::::::::::::::::::::::::::::::::::::::::::::
         :: total energy             -79.899070913871 Eh    ::
         :: total w/o Gsasa/hb       -79.895781019695 Eh    ::
         :: gradient norm              0.000439976469 Eh/a0 ::
         :: HOMO-LUMO gap              0.130749280838 eV    ::
         ::.................................................::
         :: SCC energy               -80.944514042679 Eh    ::
         :: -> isotropic ES            0.192403635120 Eh    ::
         :: -> anisotropic ES          0.000721903847 Eh    ::
         :: -> anisotropic XC          0.021491132755 Eh    ::
         :: -> dispersion             -0.056433304134 Eh    ::
         :: -> Gsolv                  -0.038191520873 Eh    ::
         ::    -> Gelec               -0.034901626697 Eh    ::
         ::    -> Gsasa                0.002376918630 Eh    ::
         ::    -> Ghb                 -0.006747572504 Eh    ::
         ::    -> Gshift               0.001080759698 Eh    ::
         :: repulsion energy           1.045443128808 Eh    ::
         :: add. restraining           0.000000000000 Eh    ::
         :: total charge              -0.000000000000 e     ::
         :::::::::::::::::::::::::::::::::::::::::::::::::::::


Property printout bound to 'properties.out'

           -------------------------------------------------
          | TOTAL ENERGY              -79.899070913871 Eh   |
          | GRADIENT NORM               0.000439976469 Eh/α |
          | HOMO-LUMO GAP               0.130749280838 eV   |
           -------------------------------------------------

------------------------------------------------------------------------
 * finished run on 2025/07/16 at 15:48:05.726     
------------------------------------------------------------------------
 total:
 * wall-time:     0 d,  0 h,  0 min,  0.117 sec
 *  cpu-time:     0 d,  0 h,  0 min,  0.068 sec
 * ratio c/w:     0.584 speedup
 SCF:
 * wall-time:     0 d,  0 h,  0 min,  0.071 sec
 *  cpu-time:     0 d,  0 h,  0 min,  0.054 sec
 * ratio c/w:     0.755 speedup


-------------------------   --------------------
FINAL SINGLE POINT ENERGY       -79.899070913870
-------------------------   --------------------


-------------
DIPOLE MOMENT
-------------
                                X             Y             Z
Total Dipole Moment    :     -1.70300      -2.35200      -0.80100
                        -----------------------------------------
Magnitude (a.u.)       :      3.01226
Magnitude (Debye)      :      7.65656

                                *** OPTIMIZATION RUN DONE ***


--------------------------------
SUGGESTED CITATIONS FOR THIS RUN
--------------------------------

Below you find a list of papers that are relevant to this ORCA run
We neither can nor want to force you to cite these papers, but we appreciate if you do
You receive ORCA, which is the product of decades of hard work by many enthusiastic individuals, for free
The only thing we kindly ask in return is that you cite our papers,
We deeply appreciate it, if you show your appreciation for ORCA by not just citing the generic ORCA reference.

Please note that relegating all ORCA citations to the supporting information does *not* help us.
SI sections are not indexed - citations you put there will not count into any citation statistics
But we need these citations in order to attract the funding resources that allow us to do what we are doing

Therefore, if you are a happy ORCA user, please consider citing a few of the papers listed below in the main body of your paper

In addition to the list printed below, the program has created the file /home/esp/scriptDevelopment/drFrankenstein/11_PCY_CHARMM/04_torsion_scanning/torsion_NH1-CT1-CG321-CG2R61/scans_PCY_conformer_34/PCY_conformer_34_opt/orca_opt.bibtex that contains the list in bibtex format
You can import this file easily into all common literature databanks and citation aid programs


List of essential papers. We consider these as the minimum necessary citations

  1. Bannwarth, C.; Ehlert, S.; Grimme, S.
     GFN2-xTB—An Accurate and Broadly Parametrized Self-Consistent Tight-Binding Quantum Chemical Method with Multipole Electrostatics and Density-Dependent Dispersion Contributions
     J. Chem. Theory Comput. 2019 15(3), 1652-1671
     doi.org/10.1021/acs.jctc.8b01176
  2. Neese, F.
     Software update: the ORCA program system, version 6.0
     WIRES Comput. Molec. Sci. 2025 15(1), e70019
     doi.org/10.1002/wcms.7019

List of papers to cite with high priority. The work reported in these papers was absolutely
necessary for this run to complete.
Our perspective: the developers of density functionals and basis sets usually get cited in chemistry papers
Good! But without the algorithms to do something with them, the functionals or basis sets would not do anything.
Hence, in our opinion, the algorithm design and method developments papers are equally worthy of getting cited

  1. Bannwarth, C.; Caldeweyher, E.; Ehlert, S.; Hansen, A.; Pracht, P.; Seibert, J.; Spicher, S.; Grimme, S.
     Extended tight-binding quantum chemistry methods
     WIRES Comput. Molec. Sci. 2020 11(2), e1493
     doi.org/10.1002/wcms.1493

List of suggested additional citations. These are papers that are important in the 'surrounding' of 
of this run, or papers that preceded the highly important papers. If you like your results we are grateful for a citation.

  1. Neese, F.
     The ORCA program system
     WIRES Comput. Molec. Sci. 2012 2(1), 73-78
     doi.org/10.1002/wcms.81
  2. Neese, F.
     Software update: the ORCA program system, version 4.0
     WIRES Comput. Molec. Sci. 2018 8(1), 1-6
     doi.org/10.1002/wcms.1327
  3. Neese, F.; Wennmohs, F.; Becker, U.; Riplinger, C.
     The ORCA quantum chemistry program package
     J. Chem. Phys. 2020 152(22), 224108
     doi.org/10.1063/5.0004608
  4. Neese, F.
     Software update: The ORCA program system—Version 5.0
     WIRES Comput. Molec. Sci. 2022 12(1), e1606
     doi.org/10.1002/wcms.1606

List of optional additional citations

  1. Neese, F.
     Approximate second-order SCF convergence for spin unrestricted wavefunctions
     Chem. Phys. Lett. 2000 325(1-3), 93-98
     doi.org/10.1016/s0009-2614(00)00662-x

Timings for individual modules:

Sum of individual times          ...        1.585 sec (=   0.026 min)
Geometry relaxation              ...        0.168 sec (=   0.003 min)  10.6 %
XTB module                       ...        1.417 sec (=   0.024 min)  89.4 %
                             ****ORCA TERMINATED NORMALLY****
TOTAL RUN TIME: 0 days 0 hours 0 minutes 1 seconds 679 msec
