
                                 *****************
                                 * O   R   C   A *
                                 *****************

                                            #,                                       
                                            ###                                      
                                            ####                                     
                                            #####                                    
                                            ######                                   
                                           ########,                                 
                                     ,,################,,,,,                         
                               ,,#################################,,                 
                          ,,##########################################,,             
                       ,#########################################, ''#####,          
                    ,#############################################,,   '####,        
                  ,##################################################,,,,####,       
                ,###########''''           ''''###############################       
              ,#####''   ,,,,##########,,,,          '''####'''          '####       
            ,##' ,,,,###########################,,,                        '##       
           ' ,,###''''                  '''############,,,                           
         ,,##''                                '''############,,,,        ,,,,,,###''
      ,#''                                            '''#######################'''  
     '                                                          ''''####''''         
             ,#######,   #######,   ,#######,      ##                                
            ,#'     '#,  ##    ##  ,#'     '#,    #''#        ,####,    ,#,          
            ##       ##  ##   ,#'  ##            #'  '#       #'       ,# #          
            ##       ##  #######   ##           ,######,      #####,      #          
            '#,     ,#'  ##    ##  '#,     ,#' ,#      #,     #,   #      #          
             '#######'   ##     ##  '#######'  #'      '#     '####' #    #          



                #########################################################
                #                        -***-                          #
                #          Department of theory and spectroscopy        #
                #                                                       #
                #                      Frank Neese                      #
                #                                                       #
                #     Directorship, Architecture, Infrastructure        #
                #                    SHARK, DRIVERS                     #
                #        Core code/Algorithms in most modules           #
                #                                                       #
                #        Max Planck Institute fuer Kohlenforschung      #
                #                Kaiser Wilhelm Platz 1                 #
                #                 D-45470 Muelheim/Ruhr                 #
                #                      Germany                          #
                #                                                       #
                #                  All rights reserved                  #
                #                        -***-                          #
                #########################################################


                         Program Version 6.1.0  -  RELEASE   -
                                (GIT: $679e74b$)
                          ($2025-06-10 18:02:51 +0200$)


 With contributions from (in alphabetic order):
[Max-Planck-Institut fuer Kohlenforschung]                               
  Daniel Aravena         : Magnetic Suceptibility                        
  Michael Atanasov       : Ab Initio Ligand Field Theory (pilot matlab implementation)
  Alexander A. Auer      : GIAO ZORA, VPT2 properties, NMR spectrum      
  Ute Becker             : All parallelization in ORCA, NUMFREQ, NUMCALC 
  Giovanni Bistoni       : ED, misc. LED, open-shell LED, HFLD           
  Dmytro Bykov           : pre 5.0 version of the SCF Hessian            
  Marcos Casanova-Páez   : Triplet and SCS-CIS(D). UHF-(DLPNO)-IP/EA/STEOM-CCSD. UHF-CVS-IP/STEOM-CCSD   
  Vijay G. Chilkuri      : MRCI spin determinant printing, contributions to CSF-ICE 
  Pauline Colinet        : FMM embedding                                 
  Dipayan Datta          : RHF DLPNO-CCSD density                        
  Achintya Kumar Dutta   : EOM-CC, STEOM-CC                              
  Nicolas Foglia         : Exact transition moments, OPA infrastructure, MCD improvements    
  Dmitry Ganyushin       : Spin-Orbit,Spin-Spin,Magnetic field MRCI      
  Miquel Garcia-Rates    : C-PCM and meta-GGA Hessian, CCSD/C-PCM, Gaussian charge scheme 
  Tiago L. C. Gouveia    : GS-ROHF, GS-ROCIS                             
  Yang Guo               : DLPNO-NEVPT2, F12-NEVPT2, CIM, IAO-localization        
  Andreas Hansen         : Spin unrestricted coupled pair/coupled cluster methods 
  Ingolf Harden          : AUTO-CI MPn and infrastructure                
  Benjamin Helmich-Paris : MC-RPA, TRAH-(SCF,CASSCF), AVAS, COSX integrals, SCF dyn. polar., MC-PDFT, srDFT 
  Lee Huntington         : MR-EOM, pCC                                   
  Robert Izsak           : Overlap fitted RIJCOSX, COSX-SCS-MP3, EOM     
  Riya Kayal             : Wick's Theorem for AUTO-CI, AUTO-CI UHF-CCSDT 
  Emily Kempfer          : AUTO-CI RHF CISDT and CCSDT, approximate NEVPT4
  Christian Kollmar      : KDIIS, OOCD, Brueckner-CCSD(T), CCSD density, CASPT2, CASPT2-K, improved NEVPT2 
  Axel Koslowski         : Symmetry handling                             
  Simone Kossmann        : meta-GGA functionals, TD-DFT gradient, OOMP2, (MP2 Hessian; deprecated post 5.0) 
  Lucas Lang             : DCDCAS, Hyperfine gauge corrections, ICE-SOC+SSC
  Marvin Lechner         : AUTO-CI (C++ implementation), FIC-MRCC        
  Spencer Leger          : CASSCF response                               
  Dagmar Lenk            : GEPOL surface, SMD, ORCA-2-JSON               
  Dimitrios Liakos       : Extrapolation schemes; Compound Job, Property file
  Dimitrios Manganas     : Further ROCIS development; embedding schemes. LFT, Crystal Embedding 
  Dimitrios Pantazis     : SARC Basis sets                               
  Anastasios Papadopoulos: AUTO-CI, single reference methods and gradients 
  Taras Petrenko         : pre 6.0 DFT Hessian and TD-DFT gradient,  ECA, NRVS 
  Petra Pikulova         : Analytic Raman intensities                    
  Peter Pinski           : DLPNO-MP2, DLPNO-MP2 Gradient                 
  Shashank Vittal Rao    : ES-AILFT, MagRelax                            
  Christoph Reimann      : Effective Core Potentials                     
  Marius Retegan         : Local ZFS, SOC                                
  Christoph Riplinger    : Optimizer, TS searches, QM/MM, DLPNO-CCSD(T), (RO)-DLPNO pert. Triples 
  Michael Roemelt        : Original ROCIS implementation, recursive CI coupling coefficients
  Masaaki Saitow         : Open-shell DLPNO-CCSD energy and density      
  Barbara Sandhoefer     : DKH picture change effects                    
  Yorick L. A. Schmerwitz: GMF and freeze-and-release deltaSCF, NEB S-IDPP initial path                    
  Kantharuban Sivalingam : CASSCF convergence/infrastructure, NEVPT2, NEVPT3, NEVPT4(SD), FIC-MRCI and CEPA variants
  Bernardo de Souza      : ESD, SOC TD-DFT                               
  Georgi L. Stoychev     : AutoAux, RI-MP2 NMR, DLPNO-MP2 response, X2C  
  Van Anh Tran           : RI-MP2 g-tensors                              
  Willem Van den Heuvel  : Paramagnetic NMR                              
  Zikuan Wang            : NOTCH, Electric field optimization            
  Frank Wennmohs         : Technical directorship and infrastructure     
  Hang Xu                : AUTO-CI-Response properties                   
                                                                         
[FACCTs GmbH]                                                            
  Markus Bursch, Nicolas Foglia, Miquel Garcia-Rates, Ingolf Harden, Hagen Neugebauer, Anastasios Papadopoulos, 
  Christoph Riplinger, Bernardo de Souza, Georgi L. Stoychev                                                    
                                                                 
  APM, various basis sets, CI-OPT, improved COSX, DLPNO-Multilevel,           
  DOCKER, DRACO, updates on ESD, Fragmentator, GOAT, IRC, LR-CPCM, L-BFGS, MBIS, meta-GGA TD-DFT gradient, ML-optimized integration grids, 
  MM, NACMEs, nearIR, NEB, NEB-TS, NL-DFT gradient (VV10), 2- and 3-layer-ONIOM, interface openCOSMO-RS, QMMM,   
  Crystal-QMMM, RESP, rigid body optimization, SF, symmetry and pop. for TD-DFT, various functionals, SOLVATOR                                   
                                                                         
[Other institutions]                                                     
  V. Asgeirsson          : NEB                                           
  Christoph Bannwarth    : sTDA-DFT, sTD-DFT, PBEh-3c, B97-3c, D3        
  Giovanni Bistoni       : ETS/NOCV, ADLD/ADEX, COVALED                  
  Martin Brehm           : Molecular dynamics                            
  Ronald Cardenas        : ETS/NOCV                                      
  Martina Colucci        : COVALED                                       
  Sebastian Ehlert       : rSCAN, r2SCAN, r2SCAN-3c, D4, dhf basis sets  
  Marvin Friede          : D4 for Fr, Ra, Ac-Lr                          
  Lars Goerigk           : TD-DFT with DH, B97 family of functionals     
  Stefan Grimme          : VdW corrections, initial TS optimization, DFT functionals, gCP, sTDA/sTD-DF 
  Waldemar Hujo          : DFT-NL                                        
  H. Jonsson             : NEB                                           
  Holger Kruse           : gCP                                           
  Marcel Mueller         : wB97X-3c, vDZP basis set                      
  Hagen Neugebauer       : wr2SCAN, Native XTB                           
  Gianluca Regni         : ADLD/ADEX                                     
  Tobias Risthaus        : pre 6.0 range-separated hybrid DFT and stability analysis
  Lukas Wittmann         : regularized MP2, r2SCAN double-hybrids, wr2SCAN        
                                                                         
We gratefully acknowledge several colleagues who have allowed us to      
interface, adapt or use parts of their codes:                            
  Ed Valeev, F. Pavosevic, A. Kumar             : LibInt (2-el integral package), F12 methods 
  Garnet Chan, S. Sharma, J. Yang, R. Olivares  : DMRG                   
  Ulf Ekstrom                                   : XCFun DFT Library      
  Mihaly Kallay                                 : mrcc  (arbitrary order and MRCC methods)
  Frank Weinhold                                : gennbo (NPA and NBO analysis)           
  Simon Mueller                                 : openCOSMO-RS                            
  Christopher J. Cramer and Donald G. Truhlar   : smd solvation model                     
  S Lehtola, MJT Oliveira, MAL Marques          : LibXC Library                           
  Liviu Ungur et al                             : ANISO software                          


 Your calculation uses the libint2 library for the computation of 2-el integrals
 For citations please refer to: http://libint.valeyev.net

 Your ORCA version has been built with support for libXC version: 7.0.0
 For citations please refer to: https://libxc.gitlab.io

 This ORCA versions uses:
   CBLAS   interface :  Fast vector & matrix operations
   LAPACKE interface :  Fast linear algebra routines
   SCALAPACK package :  Parallel linear algebra routines
   Shared memory     :  Shared parallel matrices
   BLAS/LAPACK       :  OpenBLAS 0.3.29  USE64BITINT DYNAMIC_ARCH NO_AFFINITY Haswell SINGLE_THREADED
        Core in use  :  Haswell
   Copyright (c) 2011-2014, The OpenBLAS Project


  ***********************************
  * Starting time: Wed Jul 16 15:23:20 2025
  * Host name:     MONSTER
  * Process ID:    195269
  * Working dir.:  /home/esp/scriptDevelopment/drFrankenstein
  ***********************************



***************************************
The coordinates will be read from file: /home/esp/scriptDevelopment/drFrankenstein/11_PCY_CHARMM/03_GOAT_conformers/PCY_capped.xyz
***************************************


Your calculation utilizes the semiempirical GFN2-xTB method
Please cite in your paper:
Bannwarth, C.; Ehlert S.; Grimme, S. J. Chem. Theory Comput. 2019, 15, 1652.
   

================================================================================

================================================================================
                                        WARNINGS
                       Please study these warnings very carefully!
================================================================================


================================================================================
 STARTING AUTOMATIC FRAGMENTATION: 
================================================================================

WARNING: Geometry Optimization
  ===> : Switching off AutoStart
         For restart on a previous wavefunction, please use MOREAD

WARNING: Found dipole moment calculation with XTB calculation
  ===> : Switching off dipole moment calculation


================================================================================
                                       INPUT FILE
================================================================================
NAME = /home/esp/scriptDevelopment/drFrankenstein/11_PCY_CHARMM/03_GOAT_conformers/GOAT_orca.inp
|  1>  # --------------------------------- #
|  2>  #  GOAT conformation generation     #
|  3>  # --------------------------------- #
|  4> !XTB2 GOAT
|  5> %PAL NPROCS 16 END
|  6> %GOAT
|  7> 	MAXITERMULT 1
|  8> 	FREEZEAMIDES TRUE
|  9> 	FREEZECISTRANS TRUE
| 10>  END
| 11> *xyzfile 0 1 /home/esp/scriptDevelopment/drFrankenstein/11_PCY_CHARMM/03_GOAT_conformers/PCY_capped.xyz
| 12> 
| 13>                          ****END OF INPUT****
================================================================================

                       *****************************
                       * Geometry Optimization Run *
                       *****************************


                       *********************************
                       *              GOAT             *
                       * Global Optimization Algorithm *
                       *********************************

Geometry optimization settings:
Update method            Update   .... BFGS
Choice of coordinates    CoordSys .... (2022) Redundant Internals
Initial Hessian          InHess   .... Almloef's Model
Max. no of cycles        MaxIter  .... 141

Convergence Tolerances:
Energy Change            TolE     ....  5.0000e-06 Eh
Max. Gradient            TolMAXG  ....  3.0000e-04 Eh/bohr
RMS Gradient             TolRMSG  ....  1.0000e-04 Eh/bohr
Max. Displacement        TolMAXD  ....  4.0000e-03 bohr
RMS Displacement         TolRMSD  ....  2.0000e-03 bohr
Strict Convergence                .... True

------------------------------------------------------------------------------
                        ORCA OPTIMIZATION COORDINATE SETUP
------------------------------------------------------------------------------

The optimization will be done in redundant internal coordinates (2022)
Making redundant internal coordinates   ...  (2022 redundants) done
Evaluating the initial hessian          ...  (Almloef) done
Evaluating the coordinates              ...  done
Calculating the B-matrix                .... done
Calculating the G-matrix                .... done
The number of degrees of freedom        ....  225

    -----------------------------------------------------------------
                    Redundant Internal Coordinates


    -----------------------------------------------------------------
         Definition                    Initial Value    Approx d2E/dq
    -----------------------------------------------------------------
      1. B(N  13,H  11)                  1.0173         0.421333   
      2. B(C  14,N  13)                  1.3586         0.627968   
      3. B(C  15,C  14)                  1.4619         0.479828   
      4. B(C  16,C  14)                  1.4957         0.423746   
      5. B(C  16,H   3)                  1.0926         0.356733   
      6. B(C  16,H   7)                  1.0954         0.353080   
      7. B(O  17,C  15)                  1.2397         0.972068   
      8. B(C  18,C  16)                  1.5105         0.401306   
      9. B(C  19,C  18)                  1.3928         0.618377   
     10. B(C  19,H   5)                  1.0795         0.374315   
     11. B(C  20,C  19)                  1.3792         0.650183   
     12. B(C  20,H   2)                  1.0777         0.376742   
     13. B(C  21,C  20)                  1.3959         0.611342   
     14. B(C  22,C  21)                  1.3907         0.623171   
     15. B(C  22,H   6)                  1.0779         0.376432   
     16. B(C  23,C  22)                  1.3851         0.636176   
     17. B(C  23,C  18)                  1.3858         0.634431   
     18. B(C  23,H   9)                  1.0797         0.374052   
     19. B(O  24,C  21)                  1.3648         0.613905   
     20. B(C  25,O  24)                  1.4120         0.516224   
     21. B(C  25,H   4)                  1.0992         0.348158   
     22. B(C  25,H   0)                  1.0996         0.347662   
     23. B(C  26,C  25)                  1.5027         0.412937   
     24. B(C  27,C  26)                  1.3882         0.629003   
     25. B(C  27,H   1)                  1.0771         0.377641   
     26. B(C  28,C  27)                  1.3839         0.638913   
     27. B(C  28,H  12)                  1.0778         0.376659   
     28. B(C  29,C  28)                  1.3892         0.626708   
     29. B(C  29,H   8)                  1.0776         0.376865   
     30. B(C  30,C  29)                  1.3762         0.657393   
     31. B(C  30,H  10)                  1.0793         0.374559   
     32. B(C  31,C  30)                  1.3995         0.603310   
     33. B(C  31,C  26)                  1.4060         0.589083   
     34. B(N  32,C  31)                  1.4111         0.517803   
     35. B(O  33,N  32)                  1.2352         0.885215   
     36. B(O  34,N  32)                  1.2354         0.884294   
     37. B(N  36,C  35)                  1.4442         0.458520   
     38. B(N  36,C  15)                  1.3520         0.643498   
     39. B(H  37,N  36)                  1.0057         0.439555   
     40. B(H  38,C  35)                  1.0900         0.360140   
     41. B(H  39,C  35)                  1.0928         0.356453   
     42. B(H  40,C  35)                  1.0858         0.365759   
     43. B(C  41,N  13)                  1.3829         0.574345   
     44. B(O  42,C  41)                  1.2211         1.040776   
     45. B(C  43,C  41)                  1.4993         0.418226   
     46. B(H  44,C  43)                  1.0877         0.363120   
     47. B(H  45,C  43)                  1.0877         0.363196   
     48. B(H  46,C  43)                  1.0840         0.368148   
     49. A(H  11,N  13,C  41)          117.8120         0.352447   
     50. A(C  14,N  13,C  41)          125.7226         0.423551   
     51. A(H  11,N  13,C  14)          116.1210         0.357823   
     52. A(N  13,C  14,C  15)          118.9073         0.412874   
     53. A(N  13,C  14,C  16)          118.2977         0.403890   
     54. A(C  15,C  14,C  16)          122.2891         0.387744   
     55. A(O  17,C  15,N  36)          122.1686         0.467954   
     56. A(C  14,C  15,O  17)          121.8559         0.446541   
     57. A(C  14,C  15,N  36)          115.9137         0.414670   
     58. A(H   3,C  16,H   7)          107.8474         0.289515   
     59. A(H   3,C  16,C  14)          109.3294         0.330613   
     60. A(C  14,C  16,C  18)          112.8164         0.375902   
     61. A(H   3,C  16,C  18)          109.2481         0.327656   
     62. A(H   7,C  16,C  14)          108.7753         0.330051   
     63. A(H   7,C  16,C  18)          108.7005         0.327100   
     64. A(C  16,C  18,C  23)          121.5833         0.403344   
     65. A(C  19,C  18,C  23)          118.6727         0.435662   
     66. A(C  16,C  18,C  19)          119.7440         0.401526   
     67. A(C  18,C  19,C  20)          120.7041         0.437592   
     68. A(H   5,C  19,C  18)          119.5439         0.355074   
     69. A(H   5,C  19,C  20)          119.7519         0.358111   
     70. A(H   2,C  20,C  21)          118.7334         0.354774   
     71. A(C  19,C  20,C  21)          120.2983         0.436690   
     72. A(H   2,C  20,C  19)          120.9673         0.358505   
     73. A(C  22,C  21,O  24)          125.0607         0.430857   
     74. A(C  20,C  21,O  24)          115.6266         0.429377   
     75. A(C  20,C  21,C  22)          119.3013         0.433367   
     76. A(C  21,C  22,C  23)          119.7907         0.436484   
     77. A(H   6,C  22,C  23)          119.3609         0.357130   
     78. A(H   6,C  22,C  21)          120.8469         0.355880   
     79. A(C  18,C  23,C  22)          121.2281         0.437896   
     80. A(H   9,C  23,C  22)          118.8020         0.356746   
     81. A(H   9,C  23,C  18)          119.9698         0.356579   
     82. A(C  21,O  24,C  25)          118.4451         0.413899   
     83. A(H   0,C  25,H   4)          107.1837         0.287717   
     84. A(O  24,C  25,C  26)          110.0529         0.388473   
     85. A(H   4,C  25,C  26)          108.9304         0.327885   
     86. A(H   0,C  25,C  26)          109.8096         0.327808   
     87. A(H   4,C  25,O  24)          110.5619         0.338198   
     88. A(H   0,C  25,O  24)          110.2484         0.338118   
     89. A(C  27,C  26,C  31)          117.7252         0.431209   
     90. A(C  25,C  26,C  31)          122.5032         0.400117   
     91. A(C  25,C  26,C  27)          119.7715         0.404769   
     92. A(C  26,C  27,C  28)          121.6706         0.437556   
     93. A(H   1,C  27,C  28)          120.2735         0.357586   
     94. A(H   1,C  27,C  26)          118.0532         0.356637   
     95. A(C  27,C  28,C  29)          120.2020         0.437268   
     96. A(H  12,C  28,C  29)          120.1539         0.356258   
     97. A(H  12,C  28,C  27)          119.6440         0.357428   
     98. A(C  28,C  29,C  30)          119.3987         0.439523   
     99. A(H   8,C  29,C  30)          119.9680         0.359199   
    100. A(H   8,C  29,C  28)          120.6323         0.356291   
    101. A(C  29,C  30,C  31)          120.5638         0.436517   
    102. A(H  10,C  30,C  31)          117.8827         0.353631   
    103. A(H  10,C  30,C  29)          121.5524         0.358824   
    104. A(C  30,C  31,N  32)          117.0253         0.415532   
    105. A(C  26,C  31,N  32)          122.5410         0.413773   
    106. A(C  26,C  31,C  30)          120.4324         0.427994   
    107. A(O  33,N  32,O  34)          121.4763         0.481023   
    108. A(C  31,N  32,O  34)          119.7075         0.439156   
    109. A(C  31,N  32,O  33)          118.8123         0.439239   
    110. A(N  36,C  35,H  38)          108.6033         0.333466   
    111. A(H  39,C  35,H  40)          109.7038         0.291087   
    112. A(H  38,C  35,H  40)          109.8821         0.291558   
    113. A(N  36,C  35,H  40)          109.7512         0.334324   
    114. A(H  38,C  35,H  39)          108.2395         0.290380   
    115. A(N  36,C  35,H  39)          110.6341         0.332897   
    116. A(C  35,N  36,H  37)          117.6985         0.341764   
    117. A(C  15,N  36,H  37)          120.3019         0.361917   
    118. A(C  15,N  36,C  35)          121.8339         0.408687   
    119. A(O  42,C  41,C  43)          123.9991         0.440992   
    120. A(N  13,C  41,C  43)          114.1948         0.396678   
    121. A(N  13,C  41,O  42)          121.7222         0.464081   
    122. A(H  45,C  43,H  46)          110.2370         0.292245   
    123. A(H  44,C  43,H  46)          109.7271         0.292236   
    124. A(C  41,C  43,H  46)          112.2358         0.331621   
    125. A(H  44,C  43,H  45)          107.2570         0.291614   
    126. A(C  41,C  43,H  45)          109.0952         0.330878   
    127. A(C  41,C  43,H  44)          108.1406         0.330866   
    128. D(C  16,C  14,N  13,C  41)   -154.9419         0.031997   
    129. D(C  15,C  14,N  13,C  41)     33.0266         0.031997   
    130. D(C  16,C  14,N  13,H  11)     18.1397         0.031997   
    131. D(C  15,C  14,N  13,H  11)   -153.8918         0.031997   
    132. D(N  36,C  15,C  14,N  13)   -156.0159         0.015675   
    133. D(O  17,C  15,C  14,C  16)   -144.9132         0.015675   
    134. D(N  36,C  15,C  14,C  16)     32.2861         0.015675   
    135. D(O  17,C  15,C  14,N  13)     26.7849         0.015675   
    136. D(H   7,C  16,C  14,C  15)    -96.7703         0.013271   
    137. D(C  18,C  16,C  14,N  13)    -29.2072         0.013271   
    138. D(H   3,C  16,C  14,C  15)     20.7646         0.013271   
    139. D(H   3,C  16,C  14,N  13)   -150.9818         0.013271   
    140. D(H   7,C  16,C  14,N  13)     91.4833         0.013271   
    141. D(C  19,C  18,C  16,H   3)     58.2968         0.011948   
    142. D(C  19,C  18,C  16,H   7)    175.7431         0.011948   
    143. D(C  19,C  18,C  16,C  14)    -63.5236         0.011948   
    144. D(C  23,C  18,C  16,H   7)     -4.3354         0.011948   
    145. D(C  23,C  18,C  16,H   3)   -121.7817         0.011948   
    146. D(C  20,C  19,C  18,C  16)   -179.9043         0.026452   
    147. D(H   5,C  19,C  18,C  23)   -179.8967         0.026452   
    148. D(C  20,C  19,C  18,C  23)      0.1720         0.026452   
    149. D(H   5,C  19,C  18,C  16)      0.0271         0.026452   
    150. D(C  21,C  20,C  19,C  18)      0.3862         0.029435   
    151. D(C  21,C  20,C  19,H   5)   -179.5450         0.029435   
    152. D(H   2,C  20,C  19,C  18)   -179.9678         0.029435   
    153. D(H   2,C  20,C  19,H   5)      0.1010         0.029435   
    154. D(O  24,C  21,C  20,C  19)   -179.6353         0.025819   
    155. D(O  24,C  21,C  20,H   2)      0.7108         0.025819   
    156. D(C  22,C  21,C  20,C  19)     -0.8006         0.025819   
    157. D(C  22,C  21,C  20,H   2)    179.5455         0.025819   
    158. D(H   6,C  22,C  21,C  20)   -178.8945         0.026889   
    159. D(C  23,C  22,C  21,O  24)    179.3738         0.026889   
    160. D(C  23,C  22,C  21,C  20)      0.6574         0.026889   
    161. D(H   6,C  22,C  21,O  24)     -0.1781         0.026889   
    162. D(C  18,C  23,C  22,C  21)     -0.1021         0.028097   
    163. D(C  18,C  23,C  22,H   6)    179.4565         0.028097   
    164. D(H   9,C  23,C  22,C  21)    179.9332         0.028097   
    165. D(H   9,C  23,C  22,H   6)     -0.5082         0.028097   
    166. D(C  22,C  23,C  18,C  19)     -0.3149         0.027933   
    167. D(C  22,C  23,C  18,C  16)    179.7628         0.027933   
    168. D(H   9,C  23,C  18,C  19)    179.6494         0.027933   
    169. D(H   9,C  23,C  18,C  16)     -0.2729         0.027933   
    170. D(C  25,O  24,C  21,C  22)     11.7306         0.027612   
    171. D(C  25,O  24,C  21,C  20)   -169.5108         0.027612   
    172. D(C  26,C  25,O  24,C  21)    168.1504         0.021115   
    173. D(H   4,C  25,O  24,C  21)     47.7674         0.021115   
    174. D(H   0,C  25,O  24,C  21)    -70.5723         0.021115   
    175. D(C  31,C  26,C  25,H   4)    -66.8820         0.012623   
    176. D(C  31,C  26,C  25,H   0)     50.2162         0.012623   
    177. D(C  27,C  26,C  25,O  24)     -8.1675         0.012623   
    178. D(C  27,C  26,C  25,H   4)    113.1951         0.012623   
    179. D(C  27,C  26,C  25,H   0)   -129.7068         0.012623   
    180. D(C  28,C  27,C  26,C  31)     -0.5997         0.027427   
    181. D(C  28,C  27,C  26,C  25)    179.3269         0.027427   
    182. D(H   1,C  27,C  26,C  31)   -179.9998         0.027427   
    183. D(H   1,C  27,C  26,C  25)     -0.0732         0.027427   
    184. D(C  29,C  28,C  27,C  26)     -0.1438         0.028355   
    185. D(C  29,C  28,C  27,H   1)    179.2432         0.028355   
    186. D(H  12,C  28,C  27,C  26)    179.9939         0.028355   
    187. D(H  12,C  28,C  27,H   1)     -0.6191         0.028355   
    188. D(C  30,C  29,C  28,H  12)   -179.6210         0.027214   
    189. D(H   8,C  29,C  28,C  27)   -179.8445         0.027214   
    190. D(H   8,C  29,C  28,H  12)      0.0171         0.027214   
    191. D(C  30,C  29,C  28,C  27)      0.5174         0.027214   
    192. D(C  31,C  30,C  29,C  28)     -0.1302         0.030139   
    193. D(C  31,C  30,C  29,H   8)   -179.7708         0.030139   
    194. D(H  10,C  30,C  29,C  28)    179.4835         0.030139   
    195. D(H  10,C  30,C  29,H   8)     -0.1570         0.030139   
    196. D(N  32,C  31,C  30,C  29)    178.9688         0.025107   
    197. D(N  32,C  31,C  30,H  10)     -0.6588         0.025107   
    198. D(C  26,C  31,C  30,C  29)     -0.6313         0.025107   
    199. D(C  26,C  31,C  30,H  10)    179.7411         0.025107   
    200. D(N  32,C  31,C  26,C  27)   -178.5976         0.023877   
    201. D(N  32,C  31,C  26,C  25)      1.4780         0.023877   
    202. D(C  30,C  31,C  26,C  27)      0.9798         0.023877   
    203. D(C  30,C  31,C  26,C  25)   -178.9446         0.023877   
    204. D(O  34,N  32,C  31,C  30)   -171.0114         0.021250   
    205. D(O  34,N  32,C  31,C  26)      8.5796         0.021250   
    206. D(O  33,N  32,C  31,C  30)      9.6866         0.021250   
    207. D(O  33,N  32,C  31,C  26)   -170.7224         0.021250   
    208. D(H  37,N  36,C  35,H  39)    -92.6790         0.017945   
    209. D(H  37,N  36,C  35,H  38)    148.6596         0.017945   
    210. D(C  15,N  36,C  35,H  40)   -146.8137         0.017945   
    211. D(C  15,N  36,C  35,H  39)     91.9884         0.017945   
    212. D(C  15,N  36,C  35,H  38)    -26.6730         0.017945   
    213. D(H  37,N  36,C  15,O  17)   -176.0381         0.033735   
    214. D(H  37,N  36,C  15,C  14)      6.7722         0.033735   
    215. D(C  35,N  36,C  15,O  17)     -0.8249         0.033735   
    216. D(C  35,N  36,C  15,C  14)   -178.0145         0.033735   
    217. D(C  43,C  41,N  13,C  14)   -169.6335         0.026425   
    218. D(C  43,C  41,N  13,H  11)     17.3901         0.026425   
    219. D(O  42,C  41,N  13,C  14)     13.5721         0.026425   
    220. D(O  42,C  41,N  13,H  11)   -159.4044         0.026425   
    221. D(H  46,C  43,C  41,N  13)      1.6643         0.012937   
    222. D(H  45,C  43,C  41,O  42)     55.8968         0.012937   
    223. D(H  45,C  43,C  41,N  13)   -120.8142         0.012937   
    224. D(H  44,C  43,C  41,O  42)    -60.4482         0.012937   
    225. D(H  44,C  43,C  41,N  13)    122.8409         0.012937   
    -----------------------------------------------------------------

Number of atoms                         .... 47
Number of degrees of freedom            .... 225


         *************************************************************
         *                GEOMETRY OPTIMIZATION CYCLE   1            *
         *************************************************************
---------------------------------
CARTESIAN COORDINATES (ANGSTROEM)
---------------------------------
  H     0.543000   -2.030000   -1.382000
  H    -1.398000   -3.355000    1.224000
  H    -2.403000   -0.104000    1.410000
  H    -0.766000    4.451000    1.617000
  H     1.373000   -1.808000    0.165000
  H    -2.490000    2.357000    1.594000
  H     1.155000    0.210000   -0.937000
  H     0.107000    4.606000    0.087000
  H    -0.155000   -7.425000    0.801000
  H     1.065000    2.635000   -0.751000
  H     1.707000   -6.673000   -0.653000
  H    -2.266000    3.130000   -1.261000
  H    -1.703000   -5.738000    1.753000
  N    -2.540000    4.103000   -1.147000
  C    -2.000000    4.756000   -0.085000
  C    -2.723000    5.889000    0.490000
  C    -0.782000    4.175000    0.560000
  O    -3.956000    5.988000    0.408000
  C    -0.715000    2.671000    0.437000
  C    -1.692000    1.884000    1.042000
  C    -1.649000    0.509000    0.944000
  C    -0.617000   -0.115000    0.241000
  C     0.357000    0.665000   -0.373000
  C     0.300000    2.045000   -0.269000
  O    -0.672000   -1.478000    0.198000
  C     0.448000   -2.181000   -0.297000
  C     0.310000   -3.647000    0.003000
  C    -0.720000   -4.089000    0.822000
  C    -0.892000   -5.431000    1.113000
  C    -0.026000   -6.378000    0.581000
  C     1.009000   -5.968000   -0.228000
  C     1.191000   -4.611000   -0.518000
  N     2.289000   -4.272000   -1.337000
  O     2.915000   -5.177000   -1.898000
  O     2.596000   -3.085000   -1.489000
  C    -2.560000    7.933000    1.820000
  N    -1.972000    6.788000    1.165000
  H    -0.969000    6.714000    1.164000
  H    -3.487000    8.189000    1.307000
  H    -2.798000    7.701000    2.861000
  H    -1.872000    8.772000    1.780000
  C    -3.308000    4.678000   -2.143000
  O    -3.372000    5.889000   -2.286000
  C    -3.974000    3.690000   -3.053000
  H    -5.046000    3.872000   -3.024000
  H    -3.644000    3.868000   -4.074000
  H    -3.769000    2.665000   -2.766000

----------------------------
CARTESIAN COORDINATES (A.U.)
----------------------------
  NO LB    ZA    FRAG    MASS        X           Y           Z
   0 H   1.0000    1     1.008    1.026121   -3.836144   -2.611602
   1 H   1.0000    1     1.008   -2.641837   -6.340031    2.313025
   2 H   1.0000    1     1.008   -4.541012   -0.196532    2.664514
   3 H   1.0000    1     1.008   -1.447530    8.411171    3.055687
   4 H   1.0000    1     1.008    2.594594   -3.416625    0.311805
   5 H   1.0000    1     1.008   -4.705418    4.454084    3.012223
   6 H   1.0000    1     1.008    2.182634    0.396842   -1.770673
   7 H   1.0000    1     1.008    0.202201    8.704079    0.164406
   8 H   1.0000    1     1.008   -0.292908  -14.031217    1.513671
   9 H   1.0000    1     1.008    2.012558    4.979428   -1.419184
  10 H   1.0000    1     1.008    3.225763  -12.610142   -1.233991
  11 H   1.0000    1     1.008   -4.282119    5.914843   -2.382945
  12 H   1.0000    1     1.008   -3.218204  -10.843249    3.312690
  13 N   7.0000    1    14.007   -4.799904    7.753546   -2.167516
  14 C   6.0000    1    12.011   -3.779452    8.987537   -0.160627
  15 C   6.0000    1    12.011   -5.145724   11.128597    0.925966
  16 C   6.0000    1    12.011   -1.477766    7.889607    1.058247
  17 O   8.0000    1    15.999   -7.475757   11.315680    0.771008
  18 C   6.0000    1    12.011   -1.351154    5.047459    0.825810
  19 C   6.0000    1    12.011   -3.197417    3.560244    1.969095
  20 C   6.0000    1    12.011   -3.116158    0.961871    1.783901
  21 C   6.0000    1    12.011   -1.165961   -0.217319    0.455424
  22 C   6.0000    1    12.011    0.674632    1.256668   -0.704868
  23 C   6.0000    1    12.011    0.566918    3.864490   -0.508336
  24 O   8.0000    1    15.999   -1.269896   -2.793015    0.374166
  25 C   6.0000    1    12.011    0.846597   -4.121493   -0.561249
  26 C   6.0000    1    12.011    0.585815   -6.891831    0.005669
  27 C   6.0000    1    12.011   -1.360603   -7.727090    1.553355
  28 C   6.0000    1    12.011   -1.685636  -10.263103    2.103265
  29 C   6.0000    1    12.011   -0.049133  -12.052673    1.097931
  30 C   6.0000    1    12.011    1.906734  -11.277886   -0.430858
  31 C   6.0000    1    12.011    2.250664   -8.713527   -0.978878
  32 N   7.0000    1    14.007    4.325583   -8.072910   -2.526564
  33 O   8.0000    1    15.999    5.508552   -9.783112   -3.586700
  34 O   8.0000    1    15.999    4.905729   -5.829805   -2.813802
  35 C   6.0000    1    12.011   -4.837699   14.991197    3.439302
  36 N   7.0000    1    14.007   -3.726540   12.827461    2.201531
  37 H   1.0000    1     1.008   -1.831145   12.687621    2.199641
  38 H   1.0000    1     1.008   -6.589475   15.474967    2.469872
  39 H   1.0000    1     1.008   -5.287454   14.552781    5.406506
  40 H   1.0000    1     1.008   -3.537567   16.576678    3.363713
  41 C   6.0000    1    12.011   -6.251214    8.840139   -4.049683
  42 O   8.0000    1    15.999   -6.372157   11.128597   -4.319914
  43 C   6.0000    1    12.011   -7.509772    6.973089   -5.769334
  44 H   1.0000    1     1.008   -9.535558    7.317020   -5.714532
  45 H   1.0000    1     1.008   -6.886162    7.309461   -7.698744
  46 H   1.0000    1     1.008   -7.122378    5.036120   -5.226982

      -----------------------------------------------------------      
     |                   =====================                   |     
     |                           x T B                           |     
     |                   =====================                   |     
     |                         S. Grimme                         |     
     |          Mulliken Center for Theoretical Chemistry        |     
     |                    University of Bonn                     |     
      -----------------------------------------------------------      

   * xtb version 6.7.1 (edcfbbe) compiled by 'albert@albert-system' on 2024-07-22

   xtb is free software: you can redistribute it and/or modify it under
   the terms of the GNU Lesser General Public License as published by
   the Free Software Foundation, either version 3 of the License, or
   (at your option) any later version.
   
   xtb is distributed in the hope that it will be useful,
   but WITHOUT ANY WARRANTY; without even the implied warranty of
   MERCHANTABILITY or FITNESS FOR A PARTICULAR PURPOSE.  See the
   GNU Lesser General Public License for more details.
   
   Cite this work as:
   * C. Bannwarth, E. Caldeweyher, S. Ehlert, A. Hansen, P. Pracht,
     J. Seibert, S. Spicher, S. Grimme, WIREs Comput. Mol. Sci., 2020, 11,
     e01493. DOI: 10.1002/wcms.1493
   
   for GFN2-xTB:
   * C. Bannwarth, S. Ehlert and S. Grimme., J. Chem. Theory Comput., 2019,
     15, 1652-1671. DOI: 10.1021/acs.jctc.8b01176
   for GFN1-xTB:
   * S. Grimme, C. Bannwarth, P. Shushkov, J. Chem. Theory Comput., 2017,
     13, 1989-2009. DOI: 10.1021/acs.jctc.7b00118
   for GFN0-xTB:
   * P. Pracht, E. Caldeweyher, S. Ehlert, S. Grimme, ChemRxiv, 2019, preprint.
     DOI: 10.26434/chemrxiv.8326202.v1
   for GFN-FF:
   * S. Spicher and S. Grimme, Angew. Chem. Int. Ed., 2020, 59, 15665-15673.
     DOI: 10.1002/anie.202004239
   
   for ALPB and GBSA implicit solvation:
   * S. Ehlert, M. Stahn, S. Spicher, S. Grimme, J. Chem. Theory Comput.,
     2021, 17, 4250-4261. DOI: 10.1021/acs.jctc.1c00471
   
   for ddCOSMO and CPCM-X implicit solvation:
   * M. Stahn, S. Ehlert, S. Grimme, J. Phys. Chem. A,
     2023, XX, XXXX-XXXX. DOI: 10.1021/acs.jpca.3c04382
   
   for DFT-D4:
   * E. Caldeweyher, C. Bannwarth and S. Grimme, J. Chem. Phys., 2017,
     147, 034112. DOI: 10.1063/1.4993215
   * E. Caldeweyher, S. Ehlert, A. Hansen, H. Neugebauer, S. Spicher,
     C. Bannwarth and S. Grimme, J. Chem. Phys., 2019, 150, 154122.
     DOI: 10.1063/1.5090222
   * E. Caldeweyher, J.-M. Mewes, S. Ehlert and S. Grimme, Phys. Chem. Chem. Phys.
     2020, 22, 8499-8512. DOI: 10.1039/D0CP00502A
   
   for sTDA-xTB:
   * S. Grimme and C. Bannwarth, J. Chem. Phys., 2016, 145, 054103.
     DOI: 10.1063/1.4959605
   
   in the mass-spec context:
   * V. Asgeirsson, C. Bauer and S. Grimme, Chem. Sci., 2017, 8, 4879.
     DOI: 10.1039/c7sc00601b
   * J. Koopman and S. Grimme, ACS Omega 2019, 4, 12, 15120-15133.
     DOI: 10.1021/acsomega.9b02011
   
   for metadynamics refer to:
   * S. Grimme, J. Chem. Theory Comput., 2019, 155, 2847-2862
     DOI: 10.1021/acs.jctc.9b00143
   
   for SPH calculations refer to:
   * S. Spicher and S. Grimme, J. Chem. Theory Comput., 2021, 17, 1701-1714
     DOI: 10.1021/acs.jctc.0c01306
   
   for ONIOM refer to:
   * C. Plett, A. Katbashev, S. Ehlert, S. Grimme, M. Bursch,
     Phys. Chem. Chem. Phys., 2023, 25, 17860-17868. DOI: 10.1039/D3CP02178E
   
   for DIPRO refer to:
   * J. Kohn, N. Gildemeister, S. Grimme, D. Fazzi, A. Hansen,
     J. Chem. Phys., 2023, just accepted.
   
   for PTB refer to:
   * S. Grimme, M. Mueller, A. Hansen, J. Chem. Phys., 2023, 158, 124111.
     DOI: 10.1063/5.0137838
   
   with help from (in alphabetical order)
   P. Atkinson, C. Bannwarth, F. Bohle, G. Brandenburg, E. Caldeweyher
   M. Checinski, S. Dohm, S. Ehlert, S. Ehrlich, I. Gerasimov, C. Hölzer
   A. Katbashev, J. Kohn, J. Koopman, C. Lavigne, S. Lehtola, F. März, M. Müller,
   F. Musil, H. Neugebauer, J. Pisarek, C. Plett, P. Pracht, F. Pultar,
   J. Seibert, P. Shushkov, S. Spicher, M. Stahn, M. Steiner, T. Strunk,
   J. Stückrath, T. Rose, and J. Unsleber
   
 * started run on 2025/07/16 at 15:23:21.065     
   ID    Z sym.   atoms
    1    1 H      1-13, 38-41, 45-47
    2    7 N      14, 33, 37
    3    6 C      15-17, 19-24, 26-32, 36, 42, 44
    4    8 O      18, 25, 34, 35, 43

           -------------------------------------------------
          |                Calculation Setup                |
           -------------------------------------------------

          program call               : /home/esp/bin/orca_6_1_0/otool_xtb /home/esp/scriptDevelopment/drFrankenstein/11_PCY_CHARMM/03_GOAT_conformers/GOAT_orca_XTB.xyz --grad -c 0 -u 0 -P 16 --namespace /home/esp/scriptDevelopment/drFrankenstein/11_PCY_CHARMM/03_GOAT_conformers/GOAT_orca --input /home/esp/scriptDevelopment/drFrankenstein/11_PCY_CHARMM/03_GOAT_conformers/GOAT_orca_XTB.input.tmp --acc 0.200000
          calculation namespace      : /home/esp/scriptDevelopment/drFrankenstein/11_PCY_CHARMM/03_GOAT_conformers/GOAT_orca
          coordinate file            : /home/esp/scriptDevelopment/drFrankenstein/11_PCY_CHARMM/03_GOAT_conformers/GOAT_orca_XTB.xyz
          omp threads                :                    16


           -------------------------------------------------
          |                 G F N 2 - x T B                 |
           -------------------------------------------------

        Reference                      10.1021/acs.jctc.8b01176
      * Hamiltonian:
        H0-scaling (s, p, d)           1.850000    2.230000    2.230000
        zeta-weighting                 0.500000
      * Dispersion:
        s8                             2.700000
        a1                             0.520000
        a2                             5.000000
        s9                             5.000000
      * Repulsion:
        kExp                           1.500000    1.000000
        rExp                           1.000000
      * Coulomb:
        alpha                          2.000000
        third order                    shell-resolved
        anisotropic                    true
        a3                             3.000000
        a5                             4.000000
        cn-shift                       1.200000
        cn-exp                         4.000000
        max-rad                        5.000000


          ...................................................
          :                      SETUP                      :
          :.................................................:
          :  # basis functions                 128          :
          :  # atomic orbitals                 128          :
          :  # shells                           74          :
          :  # electrons                       141          :
          :  max. iterations                   250          :
          :  Hamiltonian                  GFN2-xTB          :
          :  restarted?                      false          :
          :  GBSA solvation                  false          :
          :  PC potential                    false          :
          :  electronic temp.          300.0000000     K    :
          :  accuracy                    0.2000000          :
          :  -> integral cutoff          0.3198970E+02      :
          :  -> integral neglect         0.2000000E-08      :
          :  -> SCF convergence          0.2000000E-06 Eh   :
          :  -> wf. convergence          0.2000000E-04 e    :
          :  Broyden damping             0.4000000          :
          :  net charge                          0          :
          :  unpaired electrons                  0          :
          ...................................................

 iter      E             dE          RMSdq      gap      omega  full diag
   1    -80.6064919 -0.806065E+02  0.469E+00    0.95       0.0  T
   2    -80.6677425 -0.612506E-01  0.284E+00    0.15       1.0  T
   3    -80.2072923  0.460450E+00  0.276E+00    2.27       1.0  T
   4    -80.8299229 -0.622631E+00  0.139E+00    0.02       1.0  T
   5    -80.8867798 -0.568569E-01  0.459E-01    0.29       1.0  T
   6    -80.8589011  0.278787E-01  0.503E-01    0.01       1.0  T
   7    -80.8874802 -0.285791E-01  0.326E-01    0.66       1.0  T
   8    -80.8875628 -0.825234E-04  0.266E-01    0.74       1.0  T
   9    -80.8880214 -0.458587E-03  0.225E-01    0.65       1.0  T
  10    -80.8889732 -0.951872E-03  0.168E-01    0.37       1.0  T
  11    -80.8900313 -0.105811E-02  0.124E-01    0.22       1.0  T
  12    -80.8098993  0.801320E-01  0.812E-01    0.03       1.0  T
  13    -80.8892837 -0.793844E-01  0.157E-01    0.31       1.0  T
  14    -80.8895963 -0.312544E-03  0.144E-01    0.26       1.0  T
  15    -80.8904000 -0.803735E-03  0.112E-01    0.20       1.0  T
  16    -80.8915069 -0.110692E-02  0.521E-02    0.14       1.0  T
  17    -80.8918226 -0.315643E-03  0.778E-03    0.12       1.9  T
  18    -80.8918285 -0.590370E-05  0.336E-03    0.12       4.3  T
  19    -80.8918298 -0.132646E-05  0.391E-04    0.12      37.3  T
  20    -80.8918298 -0.124758E-07  0.227E-04    0.12      64.2  T
  21    -80.8918298 -0.342941E-08  0.144E-04    0.12     101.5  T
  22    -80.8918298  0.302421E-08  0.214E-04    0.12      68.2  T
  23    -80.8918298 -0.531386E-08  0.357E-05    0.12     409.1  T

   *** convergence criteria satisfied after 23 iterations ***

         #    Occupation            Energy/Eh            Energy/eV
      -------------------------------------------------------------
         1        2.0000           -0.7560942             -20.5744
       ...           ...                  ...                  ...
        65        2.0000           -0.4300666             -11.7027
        66        2.0000           -0.4272416             -11.6258
        67        2.0000           -0.4071603             -11.0794
        68        2.0000           -0.3985499             -10.8451
        69        2.0000           -0.3959023             -10.7731
        70        2.0000           -0.3875736             -10.5464
        71        0.9069           -0.3259887              -8.8706 (HOMO)
        72        0.0931           -0.3216625              -8.7529 (LUMO)
        73                         -0.2564587              -6.9786
        74                         -0.2454775              -6.6798
        75                         -0.2385377              -6.4909
        76                         -0.2372893              -6.4570
       ...                                ...                  ...
       128                          0.6429416              17.4953
      -------------------------------------------------------------
                  HL-Gap            0.0043262 Eh            0.1177 eV
             Fermi-level           -0.3403033 Eh           -9.2601 eV

 SCC (total)                   0 d,  0 h,  0 min,  0.054 sec
 SCC setup                      ...        0 min,  0.000 sec (  0.295%)
 Dispersion                     ...        0 min,  0.000 sec (  0.781%)
 classical contributions        ...        0 min,  0.000 sec (  0.041%)
 integral evaluation            ...        0 min,  0.001 sec (  2.162%)
 iterations                     ...        0 min,  0.048 sec ( 88.790%)
 molecular gradient             ...        0 min,  0.004 sec (  6.703%)
 printout                       ...        0 min,  0.001 sec (  1.164%)

         :::::::::::::::::::::::::::::::::::::::::::::::::::::
         ::                     SUMMARY                     ::
         :::::::::::::::::::::::::::::::::::::::::::::::::::::
         :: total energy             -79.850239474425 Eh    ::
         :: gradient norm              0.062776149541 Eh/a0 ::
         :: HOMO-LUMO gap              0.117722781417 eV    ::
         ::.................................................::
         :: SCC energy               -80.892018959212 Eh    ::
         :: -> isotropic ES            0.147535855797 Eh    ::
         :: -> anisotropic ES          0.009399163267 Eh    ::
         :: -> anisotropic XC          0.019724326489 Eh    ::
         :: -> dispersion             -0.048091471445 Eh    ::
         :: repulsion energy           1.041779484787 Eh    ::
         :: add. restraining           0.000000000000 Eh    ::
         :: total charge              -0.000000000000 e     ::
         :::::::::::::::::::::::::::::::::::::::::::::::::::::


Property printout bound to 'properties.out'

           -------------------------------------------------
          | TOTAL ENERGY              -79.850239474425 Eh   |
          | GRADIENT NORM               0.062776149541 Eh/α |
          | HOMO-LUMO GAP               0.117722781417 eV   |
           -------------------------------------------------

------------------------------------------------------------------------
 * finished run on 2025/07/16 at 15:23:21.130     
------------------------------------------------------------------------
 total:
 * wall-time:     0 d,  0 h,  0 min,  0.065 sec
 *  cpu-time:     0 d,  0 h,  0 min,  0.954 sec
 * ratio c/w:    14.683 speedup
 SCF:
 * wall-time:     0 d,  0 h,  0 min,  0.054 sec
 *  cpu-time:     0 d,  0 h,  0 min,  0.836 sec
 * ratio c/w:    15.466 speedup


-------------------------   --------------------
FINAL SINGLE POINT ENERGY       -79.850239474430
-------------------------   --------------------


-------------
DIPOLE MOMENT
-------------
                                X             Y             Z
Total Dipole Moment    :      0.02600      -0.58500       1.68000
                        -----------------------------------------
Magnitude (a.u.)       :      1.77913
Magnitude (Debye)      :      4.52219


------------------
CARTESIAN GRADIENT
------------------

   1   H   :    0.000115058    0.000201976   -0.000039285
   2   H   :    0.000446175   -0.000062011   -0.000402581
   3   H   :    0.000159601    0.000263823   -0.000125991
   4   H   :    0.000022589   -0.000190332   -0.000482012
   5   H   :    0.000011485   -0.000347653   -0.000155035
   6   H   :    0.000350836   -0.000356643   -0.000026312
   7   H   :   -0.000535022   -0.000337171   -0.000150374
   8   H   :   -0.001918466   -0.000225854    0.000149349
   9   H   :    0.000344534    0.000574617   -0.000256120
  10   H   :   -0.000292054   -0.000448175    0.000175173
  11   H   :    0.000043564    0.000103662   -0.000035529
  12   H   :    0.000793074   -0.000889276   -0.000561714
  13   H   :    0.000619294    0.000321009   -0.000583440
  14   N   :   -0.000476744    0.005197937    0.000512990
  15   C   :    0.001763815   -0.003490340   -0.002608267
  16   C   :    0.026299949    0.002002787    0.007099484
  17   C   :   -0.001014014    0.001636172    0.000174025
  18   O   :   -0.021812049    0.002981379   -0.002661675
  19   C   :   -0.000039086   -0.001201729   -0.000647903
  20   C   :    0.000064935    0.001875865    0.000372028
  21   C   :   -0.000197514   -0.002140031   -0.000057501
  22   C   :    0.000483049    0.003744189    0.001507533
  23   C   :    0.000278925    0.001364026   -0.000297234
  24   C   :    0.000580513    0.000487984    0.000257311
  25   O   :   -0.000605759   -0.002886699   -0.002338401
  26   C   :   -0.000419586   -0.000749756    0.001252867
  27   C   :   -0.001126750    0.000717343    0.000690213
  28   C   :    0.000979697    0.001066595    0.000124060
  29   C   :   -0.001556819    0.000028230    0.001284964
  30   C   :    0.000973604   -0.001257109   -0.000758990
  31   C   :   -0.001020809   -0.002447258    0.000850504
  32   C   :    0.005256570    0.002189340   -0.004905707
  33   N   :   -0.021693699   -0.003129994    0.019575497
  34   O   :    0.011233892   -0.009548033   -0.010498525
  35   O   :    0.006192062    0.011283112   -0.004809224
  36   C   :    0.000734532    0.002005513    0.000975302
  37   N   :   -0.004411975   -0.005182745   -0.004718254
  38   H   :    0.000167116    0.000330643    0.000130253
  39   H   :   -0.000192407    0.001068688    0.000462432
  40   H   :   -0.000332876   -0.000630634   -0.001059282
  41   H   :   -0.000383967   -0.001275611   -0.000084154
  42   C   :   -0.001552322   -0.025513887    0.002582965
  43   O   :   -0.000645053    0.019733731   -0.001546967
  44   C   :    0.001794734    0.000478491    0.000838741
  45   H   :    0.000471551    0.000606374   -0.000048785
  46   H   :   -0.000217424    0.000455731    0.000445211
  47   H   :    0.000263241    0.001591725    0.000398357

Difference to translation invariance:
           :    0.0000000000    0.0000000000    0.0000000000

Difference to rotation invariance:
           :   -0.0008388347   -0.0000000053    0.0001961146

Norm of the Cartesian gradient     ...    0.0627761495
RMS gradient                       ...    0.0052867055
MAX gradient                       ...    0.0262999494
------------------------------------------------------------------------------
                         ORCA GEOMETRY RELAXATION STEP
------------------------------------------------------------------------------

Reading the OPT-File                    .... done
Getting information on internals        .... done
Copying old internal coords+grads       .... done
Making the new internal coordinates     .... (2022 redundants) done
Validating the new internal coordinates .... (2022 redundants) done
Calculating the B-matrix                .... done
Calculating the G,G- and P matrices     .... done
Transforming gradient to internals      .... done
Projecting the internal gradient        .... done
Number of atoms                         ....  47
Number of internal coordinates          .... 225
Current Energy                          ....   -79.850239474 Eh
Current gradient norm                   ....     0.062776150 Eh/bohr
Maximum allowed component of the step   ....  0.300
Current trust radius                    ....  0.300
Evaluating the initial hessian          ....  (Almloef) done
Projecting the Hessian                  .... done
Forming the augmented Hessian           .... done
Diagonalizing the augmented Hessian     .... done
Last element of RFO vector              ....  0.983711201
Lowest eigenvalues of augmented Hessian:
 -0.002782111  0.011950097  0.012629176  0.012937653  0.013282503
Length of the computed step             ....  0.182732643
The final length of the internal step   ....  0.182732643
Converting the step to Cartesian space:
 Initial RMS(Int)=    0.0121821762
Transforming coordinates:
 Iter   0:  RMS(Cart)=    0.0548917039 RMS(Int)=    0.4188690430
 Iter   5:  RMS(Cart)=    0.0000000144 RMS(Int)=    0.0000000098
done
Storing new coordinates                 .... done

                                .--------------------.
          ----------------------|Geometry convergence|-------------------------
          Item                value                   Tolerance       Converged
          ---------------------------------------------------------------------
          RMS gradient        0.0027193239            0.0001000000      NO
          MAX gradient        0.0221083240            0.0003000000      NO
          RMS step            0.0121821762            0.0020000000      NO
          MAX step            0.0703757120            0.0040000000      NO
          -------------------------------------------------------------------------
          ........................................................
          Max(Bonds)      0.0120      Max(Angles)    0.88
          Max(Dihed)        4.03      Max(Improp)    0.00
          ---------------------------------------------------------------------

    ---------------------------------------------------------------------------
                         Redundant Internal Coordinates
                            (Angstroem and degrees)

        Definition                    Value    dE/dq     Step     New-Value
    ----------------------------------------------------------------------------
     1. B(N  13,H  11)                1.0173  0.001127 -0.0014    1.0158   
     2. B(C  14,N  13)                1.3586 -0.003031  0.0025    1.3612   
     3. B(C  15,C  14)                1.4619  0.001035 -0.0011    1.4607   
     4. B(C  16,C  14)                1.4957 -0.002133  0.0026    1.4983   
     5. B(C  16,H   3)                1.0926 -0.000512  0.0008    1.0933   
     6. B(C  16,H   7)                1.0954 -0.001711  0.0025    1.0979   
     7. B(O  17,C  15)                1.2397  0.022108 -0.0120    1.2277   
     8. B(C  18,C  16)                1.5105  0.000723 -0.0009    1.5096   
     9. B(C  19,C  18)                1.3928 -0.000250  0.0002    1.3930   
    10. B(C  19,H   5)                1.0795 -0.000429  0.0006    1.0801   
    11. B(C  20,C  19)                1.3792  0.001296 -0.0011    1.3781   
    12. B(C  20,H   2)                1.0777 -0.000316  0.0004    1.0781   
    13. B(C  21,C  20)                1.3959 -0.000338  0.0003    1.3962   
    14. B(C  22,C  21)                1.3907  0.000390 -0.0003    1.3904   
    15. B(C  22,H   6)                1.0779 -0.000175  0.0002    1.0782   
    16. B(C  23,C  22)                1.3851 -0.000236  0.0002    1.3853   
    17. B(C  23,C  18)                1.3858 -0.000065  0.0001    1.3859   
    18. B(C  23,H   9)                1.0797 -0.000531  0.0007    1.0804   
    19. B(O  24,C  21)                1.3648  0.003982 -0.0034    1.3614   
    20. B(C  25,O  24)                1.4120  0.000380 -0.0004    1.4116   
    21. B(C  25,H   4)                1.0992 -0.000174  0.0003    1.0994   
    22. B(C  25,H   0)                1.0996  0.000077 -0.0001    1.0995   
    23. B(C  26,C  25)                1.5027  0.000145 -0.0002    1.5025   
    24. B(C  27,C  26)                1.3882 -0.001114  0.0010    1.3891   
    25. B(C  27,H   1)                1.0771 -0.000474  0.0007    1.0777   
    26. B(C  28,C  27)                1.3839  0.000786 -0.0006    1.3833   
    27. B(C  28,H  12)                1.0778 -0.000905  0.0013    1.0790   
    28. B(C  29,C  28)                1.3892  0.001468 -0.0012    1.3879   
    29. B(C  29,H   8)                1.0776 -0.000652  0.0009    1.0785   
    30. B(C  30,C  29)                1.3762 -0.000791  0.0006    1.3768   
    31. B(C  30,H  10)                1.0793 -0.000025  0.0000    1.0793   
    32. B(C  31,C  30)                1.3995  0.001989 -0.0018    1.3978   
    33. B(C  31,C  26)                1.4060  0.001211 -0.0011    1.4049   
    34. B(N  32,C  31)                1.4111 -0.006130  0.0062    1.4174   
    35. B(O  33,N  32)                1.2352  0.017458 -0.0104    1.2248   
    36. B(O  34,N  32)                1.2354  0.012972 -0.0077    1.2277   
    37. B(N  36,C  35)                1.4442  0.001134 -0.0013    1.4429   
    38. B(N  36,C  15)                1.3520 -0.007044  0.0058    1.3577   
    39. B(H  37,N  36)                1.0057  0.000142 -0.0002    1.0056   
    40. B(H  38,C  35)                1.0900  0.000196 -0.0003    1.0897   
    41. B(H  39,C  35)                1.0928 -0.000800  0.0012    1.0939   
    42. B(H  40,C  35)                1.0858 -0.001227  0.0018    1.0875   
    43. B(C  41,N  13)                1.3829 -0.003090  0.0028    1.3858   
    44. B(O  42,C  41)                1.2211  0.019787 -0.0100    1.2111   
    45. B(C  43,C  41)                1.4993 -0.004091  0.0051    1.5044   
    46. B(H  44,C  43)                1.0877 -0.000366  0.0005    1.0883   
    47. B(H  45,C  43)                1.0877 -0.000408  0.0006    1.0883   
    48. B(H  46,C  43)                1.0840 -0.001351  0.0019    1.0859   
    49. A(H  11,N  13,C  41)          117.81 -0.000029   -0.00    117.81   
    50. A(C  14,N  13,C  41)          125.72  0.000113   -0.02    125.70   
    51. A(H  11,N  13,C  14)          116.12 -0.000075    0.01    116.13   
    52. A(N  13,C  14,C  15)          118.91 -0.000121   -0.03    118.87   
    53. A(N  13,C  14,C  16)          118.30  0.001189   -0.22    118.08   
    54. A(C  15,C  14,C  16)          122.29 -0.001000    0.10    122.39   
    55. A(O  17,C  15,N  36)          122.17 -0.000099   -0.02    122.15   
    56. A(C  14,C  15,O  17)          121.86  0.000910   -0.15    121.71   
    57. A(C  14,C  15,N  36)          115.91 -0.000766    0.07    115.99   
    58. A(H   3,C  16,H   7)          107.85  0.000380   -0.01    107.84   
    59. A(H   3,C  16,C  14)          109.33 -0.000266   -0.03    109.30   
    60. A(C  14,C  16,C  18)          112.82  0.002005   -0.34    112.48   
    61. A(H   3,C  16,C  18)          109.25 -0.000296   -0.06    109.19   
    62. A(H   7,C  16,C  14)          108.78 -0.001452    0.34    109.12   
    63. A(H   7,C  16,C  18)          108.70 -0.000432    0.10    108.80   
    64. A(C  16,C  18,C  23)          121.58 -0.000358    0.05    121.63   
    65. A(C  19,C  18,C  23)          118.67  0.000172   -0.02    118.65   
    66. A(C  16,C  18,C  19)          119.74  0.000185   -0.03    119.72   
    67. A(C  18,C  19,C  20)          120.70 -0.000094    0.01    120.71   
    68. A(H   5,C  19,C  18)          119.54  0.000230   -0.03    119.51   
    69. A(H   5,C  19,C  20)          119.75 -0.000137    0.03    119.78   
    70. A(H   2,C  20,C  21)          118.73  0.000209   -0.03    118.71   
    71. A(C  19,C  20,C  21)          120.30 -0.000216    0.02    120.32   
    72. A(H   2,C  20,C  19)          120.97  0.000006    0.00    120.97   
    73. A(C  22,C  21,O  24)          125.06  0.000883   -0.11    124.95   
    74. A(C  20,C  21,O  24)          115.63 -0.000861    0.12    115.74   
    75. A(C  20,C  21,C  22)          119.30 -0.000025    0.00    119.30   
    76. A(C  21,C  22,C  23)          119.79  0.000219   -0.03    119.76   
    77. A(H   6,C  22,C  23)          119.36  0.000372   -0.06    119.30   
    78. A(H   6,C  22,C  21)          120.85 -0.000592    0.09    120.94   
    79. A(C  18,C  23,C  22)          121.23 -0.000057    0.01    121.24   
    80. A(H   9,C  23,C  22)          118.80 -0.000164    0.02    118.83   
    81. A(H   9,C  23,C  18)          119.97  0.000221   -0.04    119.93   
    82. A(C  21,O  24,C  25)          118.45  0.002590   -0.36    118.09   
    83. A(H   0,C  25,H   4)          107.18 -0.000074    0.04    107.22   
    84. A(O  24,C  25,C  26)          110.05  0.000107   -0.03    110.03   
    85. A(H   4,C  25,C  26)          108.93 -0.000513    0.11    109.04   
    86. A(H   0,C  25,C  26)          109.81  0.000355   -0.07    109.74   
    87. A(H   4,C  25,O  24)          110.56  0.000403   -0.08    110.48   
    88. A(H   0,C  25,O  24)          110.25 -0.000282    0.04    110.28   
    89. A(C  27,C  26,C  31)          117.73 -0.000110    0.02    117.74   
    90. A(C  25,C  26,C  31)          122.50  0.000617   -0.09    122.41   
    91. A(C  25,C  26,C  27)          119.77 -0.000507    0.07    119.84   
    92. A(C  26,C  27,C  28)          121.67  0.000354   -0.04    121.63   
    93. A(H   1,C  27,C  28)          120.27  0.000198   -0.04    120.24   
    94. A(H   1,C  27,C  26)          118.05 -0.000553    0.08    118.14   
    95. A(C  27,C  28,C  29)          120.20  0.000020    0.00    120.20   
    96. A(H  12,C  28,C  29)          120.15  0.000064   -0.01    120.14   
    97. A(H  12,C  28,C  27)          119.64 -0.000084    0.01    119.66   
    98. A(C  28,C  29,C  30)          119.40 -0.000077    0.01    119.41   
    99. A(H   8,C  29,C  30)          119.97 -0.000263    0.04    120.01   
   100. A(H   8,C  29,C  28)          120.63  0.000340   -0.05    120.58   
   101. A(C  29,C  30,C  31)          120.56 -0.000152    0.02    120.58   
   102. A(H  10,C  30,C  31)          117.88 -0.000042    0.01    117.89   
   103. A(H  10,C  30,C  29)          121.55  0.000193   -0.03    121.53   
   104. A(C  30,C  31,N  32)          117.03  0.000403   -0.05    116.97   
   105. A(C  26,C  31,N  32)          122.54 -0.000366    0.05    122.59   
   106. A(C  26,C  31,C  30)          120.43 -0.000037    0.00    120.44   
   107. A(O  33,N  32,O  34)          121.48 -0.007158    0.88    122.36   
   108. A(C  31,N  32,O  34)          119.71  0.003304   -0.39    119.32   
   109. A(C  31,N  32,O  33)          118.81  0.003839   -0.46    118.35   
   110. A(N  36,C  35,H  38)          108.60  0.002007   -0.36    108.24   
   111. A(H  39,C  35,H  40)          109.70  0.000617   -0.08    109.63   
   112. A(H  38,C  35,H  40)          109.88 -0.000209   -0.00    109.88   
   113. A(N  36,C  35,H  40)          109.75 -0.000819    0.14    109.89   
   114. A(H  38,C  35,H  39)          108.24 -0.000442    0.08    108.32   
   115. A(N  36,C  35,H  39)          110.63 -0.001135    0.21    110.85   
   116. A(C  35,N  36,H  37)          117.70 -0.001344    0.19    117.89   
   117. A(C  15,N  36,H  37)          120.30 -0.000620    0.07    120.37   
   118. A(C  15,N  36,C  35)          121.83  0.001982   -0.30    121.53   
   119. A(O  42,C  41,C  43)          124.00  0.000288   -0.01    123.99   
   120. A(N  13,C  41,C  43)          114.19  0.001341   -0.16    114.03   
   121. A(N  13,C  41,O  42)          121.72 -0.001652    0.23    121.95   
   122. A(H  45,C  43,H  46)          110.24  0.000782   -0.16    110.07   
   123. A(H  44,C  43,H  46)          109.73  0.000942   -0.19    109.54   
   124. A(C  41,C  43,H  46)          112.24 -0.001100    0.18    112.42   
   125. A(H  44,C  43,H  45)          107.26  0.000113    0.02    107.28   
   126. A(C  41,C  43,H  45)          109.10 -0.000262    0.06    109.15   
   127. A(C  41,C  43,H  44)          108.14 -0.000449    0.09    108.23   
   128. D(C  16,C  14,N  13,C  41)   -154.94 -0.001097    1.58   -153.36   
   129. D(C  15,C  14,N  13,C  41)     33.03 -0.001551    2.79     35.81   
   130. D(C  16,C  14,N  13,H  11)     18.14 -0.001009    1.43     19.57   
   131. D(C  15,C  14,N  13,H  11)   -153.89 -0.001464    2.63   -151.26   
   132. D(N  36,C  15,C  14,N  13)   -156.02  0.000071    0.66   -155.35   
   133. D(O  17,C  15,C  14,C  16)   -144.91 -0.001584    4.03   -140.88   
   134. D(N  36,C  15,C  14,C  16)     32.29 -0.000589    1.94     34.23   
   135. D(O  17,C  15,C  14,N  13)     26.78 -0.000924    2.75     29.54   
   136. D(H   7,C  16,C  14,C  15)    -96.77  0.000694   -1.52    -98.29   
   137. D(C  18,C  16,C  14,N  13)    -29.21  0.000396   -0.41    -29.61   
   138. D(H   3,C  16,C  14,C  15)     20.76  0.000168   -1.35     19.42   
   139. D(H   3,C  16,C  14,N  13)   -150.98 -0.000385   -0.09   -151.07   
   140. D(H   7,C  16,C  14,N  13)     91.48  0.000141   -0.26     91.22   
   141. D(C  19,C  18,C  16,H   3)     58.30  0.000172   -0.17     58.13   
   142. D(C  19,C  18,C  16,H   7)    175.74  0.000215   -0.16    175.59   
   143. D(C  19,C  18,C  16,C  14)    -63.52 -0.000625    0.13    -63.40   
   144. D(C  23,C  18,C  16,H   7)     -4.34  0.000326   -0.62     -4.95   
   145. D(C  23,C  18,C  16,H   3)   -121.78  0.000283   -0.63   -122.41   
   146. D(C  20,C  19,C  18,C  16)   -179.90 -0.000024   -0.08   -179.99   
   147. D(H   5,C  19,C  18,C  23)   -179.90 -0.000117    0.32   -179.58   
   148. D(C  20,C  19,C  18,C  23)      0.17 -0.000132    0.36      0.53   
   149. D(H   5,C  19,C  18,C  16)      0.03 -0.000010   -0.13     -0.10   
   150. D(C  21,C  20,C  19,C  18)      0.39  0.000162   -0.35      0.03   
   151. D(C  21,C  20,C  19,H   5)   -179.55  0.000147   -0.31   -179.85   
   152. D(H   2,C  20,C  19,C  18)   -179.97  0.000070   -0.16   -180.13   
   153. D(H   2,C  20,C  19,H   5)      0.10  0.000055   -0.11     -0.01   
   154. D(O  24,C  21,C  20,C  19)   -179.64  0.000017   -0.05   -179.68   
   155. D(O  24,C  21,C  20,H   2)      0.71  0.000108   -0.24      0.47   
   156. D(C  22,C  21,C  20,C  19)     -0.80 -0.000123    0.21     -0.59   
   157. D(C  22,C  21,C  20,H   2)    179.55 -0.000032    0.03    179.57   
   158. D(H   6,C  22,C  21,C  20)   -178.89  0.000255   -0.44   -179.34   
   159. D(C  23,C  22,C  21,O  24)    179.37 -0.000115    0.20    179.57   
   160. D(C  23,C  22,C  21,C  20)      0.66  0.000062   -0.09      0.56   
   161. D(H   6,C  22,C  21,O  24)     -0.18  0.000078   -0.15     -0.33   
   162. D(C  18,C  23,C  22,C  21)     -0.10 -0.000034    0.11      0.01   
   163. D(C  18,C  23,C  22,H   6)    179.46 -0.000228    0.46    179.91   
   164. D(H   9,C  23,C  22,C  21)    179.93  0.000036   -0.03    179.90   
   165. D(H   9,C  23,C  22,H   6)     -0.51 -0.000159    0.31     -0.20   
   166. D(C  22,C  23,C  18,C  19)     -0.31  0.000068   -0.24     -0.56   
   167. D(C  22,C  23,C  18,C  16)    179.76 -0.000042    0.21    179.97   
   168. D(H   9,C  23,C  18,C  19)    179.65 -0.000003   -0.09    179.55   
   169. D(H   9,C  23,C  18,C  16)     -0.27 -0.000113    0.36      0.09   
   170. D(C  25,O  24,C  21,C  22)     11.73  0.001207   -2.26      9.47   
   171. D(C  25,O  24,C  21,C  20)   -169.51  0.001044   -1.98   -171.49   
   172. D(C  26,C  25,O  24,C  21)    168.15 -0.000458    0.64    168.79   
   173. D(H   4,C  25,O  24,C  21)     47.77 -0.000147    0.57     48.34   
   174. D(H   0,C  25,O  24,C  21)    -70.57 -0.000129    0.55    -70.02   
   175. D(C  31,C  26,C  25,H   4)    -66.88 -0.000006    0.44    -66.44   
   176. D(C  31,C  26,C  25,H   0)     50.22 -0.000191    0.51     50.73   
   177. D(C  27,C  26,C  25,O  24)     -8.17 -0.000281    0.62     -7.55   
   178. D(C  27,C  26,C  25,H   4)    113.20 -0.000044    0.57    113.77   
   179. D(C  27,C  26,C  25,H   0)   -129.71 -0.000229    0.64   -129.07   
   180. D(C  28,C  27,C  26,C  31)     -0.60 -0.000169    0.36     -0.24   
   181. D(C  28,C  27,C  26,C  25)    179.33 -0.000132    0.24    179.56   
   182. D(H   1,C  27,C  26,C  31)   -180.00 -0.000033    0.09   -179.91   
   183. D(H   1,C  27,C  26,C  25)     -0.07  0.000004   -0.03     -0.11   
   184. D(C  29,C  28,C  27,C  26)     -0.14  0.000035   -0.08     -0.22   
   185. D(C  29,C  28,C  27,H   1)    179.24 -0.000109    0.20    179.44   
   186. D(H  12,C  28,C  27,C  26)    179.99  0.000103   -0.20    179.79   
   187. D(H  12,C  28,C  27,H   1)     -0.62 -0.000041    0.07     -0.54   
   188. D(C  30,C  29,C  28,H  12)   -179.62  0.000009   -0.03   -179.65   
   189. D(H   8,C  29,C  28,C  27)   -179.84 -0.000005    0.01   -179.84   
   190. D(H   8,C  29,C  28,H  12)      0.02 -0.000074    0.13      0.15   
   191. D(C  30,C  29,C  28,C  27)      0.52  0.000077   -0.15      0.36   
   192. D(C  31,C  30,C  29,C  28)     -0.13 -0.000046    0.09     -0.04   
   193. D(C  31,C  30,C  29,H   8)   -179.77  0.000034   -0.07   -179.84   
   194. D(H  10,C  30,C  29,C  28)    179.48 -0.000106    0.21    179.69   
   195. D(H  10,C  30,C  29,H   8)     -0.16 -0.000026    0.05     -0.11   
   196. D(N  32,C  31,C  30,C  29)    178.97 -0.000150    0.33    179.30   
   197. D(N  32,C  31,C  30,H  10)     -0.66 -0.000093    0.21     -0.44   
   198. D(C  26,C  31,C  30,C  29)     -0.63 -0.000090    0.20     -0.43   
   199. D(C  26,C  31,C  30,H  10)    179.74 -0.000034    0.09    179.83   
   200. D(N  32,C  31,C  26,C  27)   -178.60  0.000256   -0.55   -179.15   
   201. D(N  32,C  31,C  26,C  25)      1.48  0.000219   -0.43      1.05   
   202. D(C  30,C  31,C  26,C  27)      0.98  0.000196   -0.42      0.56   
   203. D(C  30,C  31,C  26,C  25)   -178.94  0.000159   -0.30   -179.24   
   204. D(O  34,N  32,C  31,C  30)   -171.01 -0.000615    1.47   -169.54   
   205. D(O  34,N  32,C  31,C  26)      8.58 -0.000674    1.60     10.18   
   206. D(O  33,N  32,C  31,C  30)      9.69  0.000802   -1.90      7.78   
   207. D(O  33,N  32,C  31,C  26)   -170.72  0.000743   -1.77   -172.50   
   208. D(H  37,N  36,C  35,H  39)    -92.68 -0.000234    0.94    -91.74   
   209. D(H  37,N  36,C  35,H  38)    148.66 -0.000255    0.93    149.59   
   210. D(C  15,N  36,C  35,H  40)   -146.81 -0.000944    1.62   -145.19   
   211. D(C  15,N  36,C  35,H  39)     91.99 -0.000440    1.48     93.47   
   212. D(C  15,N  36,C  35,H  38)    -26.67 -0.000462    1.48    -25.19   
   213. D(H  37,N  36,C  15,O  17)   -176.04  0.000303   -0.59   -176.62   
   214. D(H  37,N  36,C  15,C  14)      6.77 -0.000726    1.52      8.29   
   215. D(C  35,N  36,C  15,O  17)     -0.82  0.000486   -1.14     -1.97   
   216. D(C  35,N  36,C  15,C  14)   -178.01 -0.000543    0.96   -177.05   
   217. D(C  43,C  41,N  13,C  14)   -169.63 -0.000758    1.66   -167.98   
   218. D(C  43,C  41,N  13,H  11)     17.39 -0.000844    1.81     19.20   
   219. D(O  42,C  41,N  13,C  14)     13.57 -0.000362    0.55     14.13   
   220. D(O  42,C  41,N  13,H  11)   -159.40 -0.000448    0.71   -158.70   
   221. D(H  46,C  43,C  41,N  13)      1.66  0.000186   -0.60      1.07   
   222. D(H  45,C  43,C  41,O  42)     55.90 -0.000361    0.59     56.49   
   223. D(H  45,C  43,C  41,N  13)   -120.81  0.000114   -0.55   -121.36   
   224. D(H  44,C  43,C  41,O  42)    -60.45 -0.000108    0.49    -59.96   
   225. D(H  44,C  43,C  41,N  13)    122.84  0.000368   -0.66    122.19   
    ----------------------------------------------------------------------------

Geometry step timings:
Preparation and reading OPT file:      0.000 s ( 0.208 %)
Internal coordinates            :      0.000 s ( 0.241 %)
B/P matrices and projection     :      0.004 s (42.234 %)
Hessian update/contruction      :      0.001 s (16.331 %)
Making the step                 :      0.003 s (30.475 %)
Converting the step to Cartesian:      0.000 s ( 4.266 %)
Storing new data                :      0.000 s ( 0.361 %)
Checking convergence            :      0.000 s ( 0.438 %)
Final printing                  :      0.000 s ( 5.436 %)
Total time                      :      0.009 s

Time for energy+gradient        :      0.072 s
Time for complete geometry iter :      0.082 s

         *************************************************************
         *                GEOMETRY OPTIMIZATION CYCLE   2            *
         *************************************************************
---------------------------------
CARTESIAN COORDINATES (ANGSTROEM)
---------------------------------
  H     0.483748   -2.013759   -1.382737
  H    -1.391460   -3.354640    1.260363
  H    -2.403784   -0.078680    1.442641
  H    -0.746883    4.466067    1.621394
  H     1.362435   -1.798241    0.138742
  H    -2.477384    2.384034    1.607818
  H     1.158980    0.197964   -0.903959
  H     0.139368    4.608807    0.094878
  H    -0.143472   -7.417577    0.796944
  H     1.082402    2.624727   -0.735246
  H     1.681262   -6.653939   -0.699967
  H    -2.242274    3.115841   -1.245599
  H    -1.675921   -5.740440    1.787703
  N    -2.504466    4.092932   -1.153450
  C    -1.975236    4.757846   -0.090165
  C    -2.721729    5.872924    0.486962
  C    -0.756633    4.183121    0.565374
  O    -3.948117    5.915859    0.450461
  C    -0.696565    2.678865    0.454119
  C    -1.680516    1.901732    1.061080
  C    -1.645582    0.526920    0.972779
  C    -0.619010   -0.108521    0.271537
  C     0.360333    0.660734   -0.346771
  C     0.312755    2.041856   -0.250312
  O    -0.679250   -1.468147    0.238112
  C     0.423271   -2.169345   -0.296031
  C     0.292268   -3.636609   -0.000028
  C    -0.720256   -4.084842    0.838753
  C    -0.880350   -5.427780    1.129218
  C    -0.022613   -6.368722    0.576703
  C     0.991852   -5.952297   -0.255735
  C     1.161366   -4.595671   -0.546587
  N     2.239254   -4.250984   -1.399968
  O     2.861779   -5.154705   -1.943825
  O     2.548169   -3.069947   -1.530289
  C    -2.606918    7.917084    1.822198
  N    -1.986033    6.800103    1.152202
  H    -0.981403    6.768490    1.122802
  H    -3.564132    8.114626    1.340400
  H    -2.793196    7.684994    2.874889
  H    -1.968065    8.794126    1.748991
  C    -3.243828    4.663269   -2.177348
  O    -3.279962    5.861226   -2.351287
  C    -3.939419    3.663871   -3.060865
  H    -5.006613    3.875949   -3.040328
  H    -3.602682    3.799079   -4.086845
  H    -3.766487    2.639801   -2.743725

----------------------------
CARTESIAN COORDINATES (A.U.)
----------------------------
  NO LB    ZA    FRAG    MASS        X           Y           Z
   0 H   1.0000    1     1.008    0.914151   -3.805454   -2.612993
   1 H   1.0000    1     1.008   -2.629478   -6.339352    2.381740
   2 H   1.0000    1     1.008   -4.542493   -0.148683    2.726196
   3 H   1.0000    1     1.008   -1.411404    8.439643    3.063990
   4 H   1.0000    1     1.008    2.574629   -3.398182    0.262185
   5 H   1.0000    1     1.008   -4.681578    4.505171    3.038336
   6 H   1.0000    1     1.008    2.190156    0.374097   -1.708234
   7 H   1.0000    1     1.008    0.263368    8.709382    0.179294
   8 H   1.0000    1     1.008   -0.271122  -14.017189    1.506006
   9 H   1.0000    1     1.008    2.045444    4.960016   -1.389413
  10 H   1.0000    1     1.008    3.177124  -12.574122   -1.322745
  11 H   1.0000    1     1.008   -4.237284    5.888086   -2.353840
  12 H   1.0000    1     1.008   -3.167032  -10.847860    3.378268
  13 N   7.0000    1    14.007   -4.732755    7.734521   -2.179704
  14 C   6.0000    1    12.011   -3.732656    8.991025   -0.170386
  15 C   6.0000    1    12.011   -5.143323   11.098217    0.920225
  16 C   6.0000    1    12.011   -1.429829    7.904954    1.068403
  17 O   8.0000    1    15.999   -7.460860   11.179354    0.851249
  18 C   6.0000    1    12.011   -1.316317    5.062321    0.858161
  19 C   6.0000    1    12.011   -3.175715    3.593752    2.005151
  20 C   6.0000    1    12.011   -3.109700    0.995735    1.838285
  21 C   6.0000    1    12.011   -1.169759   -0.205075    0.513131
  22 C   6.0000    1    12.011    0.680931    1.248607   -0.655301
  23 C   6.0000    1    12.011    0.591021    3.858548   -0.473020
  24 O   8.0000    1    15.999   -1.283596   -2.774395    0.449967
  25 C   6.0000    1    12.011    0.799866   -4.099468   -0.559417
  26 C   6.0000    1    12.011    0.552306   -6.872196   -0.000052
  27 C   6.0000    1    12.011   -1.361086   -7.719233    1.585013
  28 C   6.0000    1    12.011   -1.663620  -10.257018    2.133913
  29 C   6.0000    1    12.011   -0.042733  -12.035141    1.089810
  30 C   6.0000    1    12.011    1.874328  -11.248212   -0.483269
[...]

------------------------------------------------------------------------
 * finished run on 2025/07/16 at 15:23:22.712     
------------------------------------------------------------------------
 total:
 * wall-time:     0 d,  0 h,  0 min,  0.040 sec
 *  cpu-time:     0 d,  0 h,  0 min,  0.565 sec
 * ratio c/w:    14.224 speedup
 SCF:
 * wall-time:     0 d,  0 h,  0 min,  0.030 sec
 *  cpu-time:     0 d,  0 h,  0 min,  0.464 sec
 * ratio c/w:    15.376 speedup


-------------------------   --------------------
FINAL SINGLE POINT ENERGY       -79.854846991420
-------------------------   --------------------


-------------
DIPOLE MOMENT
-------------
                                X             Y             Z
Total Dipole Moment    :      0.72500      -0.28500       1.73000
                        -----------------------------------------
Magnitude (a.u.)       :      1.89730
Magnitude (Debye)      :      4.82256

                                *** OPTIMIZATION RUN DONE ***

		     ------------------------------
			                   _   
			                  | |  
			  __ _  ___   __ _| |_ 
			 / _` |/ _ \ / _` | __|
			| (_| | (_) | (_| | |_ 
			 \__, |\___/ \__,_|\__|
			 __/ |                
			|___/                 

		      A Global Optimizer Algorithm
		     ------------------------------

Global parameters
-----------------
  GOAT version                               ... default
  Minimum global steps                       ... 3
  Number of base workers                     ... 4
  Split workers by                           ... 4
  Final number of workers                    ... 16
  Number of available CPUs                   ... 16
  Parameter list (worker : temperature)      ...  0 : 2903.97,  1 : 1451.98, 
                                                  2 :  725.99,  3 :  363.00, 
                                                  4 : 2903.97,  5 : 1451.98, 
                                                  6 :  725.99,  7 :  363.00, 
                                                  8 : 2903.97,  9 : 1451.98, 
                                                 10 :  725.99, 11 :  363.00, 
                                                 12 : 2903.97, 13 : 1451.98, 
                                                 14 :  725.99, 15 :  363.00 
  GradComp (mean : sigma)                    ... 1.00 : 0.50
  Number of fragments                        ... 1
  Number of atoms                            ... 47
  Flexibility parameter                      ... 0.50
  Optimizations per global step              ... 640
  Optimizations per worker                   ... 40

Filtering criteria
------------------
  RMSD                                       ... 0.125 Angs (atom. pos.)
  EnDiff                                     ... 0.100 kcal/mol
  RotConst                                   ... 1.00-2.50 %
  Maximum Conf. Energy                       ... 6.000 kcal/mol

Thermodynamics
--------------
  Ensemble temperature                       ... 298.15 K
  Degeneracy of conformers                   ... 1
  *No rotamers will be included in Gconf

------------------------------------------------------------------------------
   Iter  MinTemp     MaxEn       GradComp    NOpt   NProcs    Output
------------------------------------------------------------------------------
List of participating nodes    ...  /home/esp/scriptDevelopment/drFrankenstein/11_PCY_CHARMM/03_GOAT_conformers/GOAT_orca.goat.0.hostnames

  14      725.99    141.00    1.00 : 0.50      40        1    /home/esp/scriptDevelopment/drFrankenstein/11_PCY_CHARMM/03_GOAT_conformers/GOAT_orca.goat.0.14.out
   8     2903.97    141.00    1.00 : 0.50      40        1    /home/esp/scriptDevelopment/drFrankenstein/11_PCY_CHARMM/03_GOAT_conformers/GOAT_orca.goat.0.8.out
   4     2903.97    141.00    1.00 : 0.50      40        1    /home/esp/scriptDevelopment/drFrankenstein/11_PCY_CHARMM/03_GOAT_conformers/GOAT_orca.goat.0.4.out
   2      725.99    141.00    1.00 : 0.50      40        1    /home/esp/scriptDevelopment/drFrankenstein/11_PCY_CHARMM/03_GOAT_conformers/GOAT_orca.goat.0.2.out
   3      363.00    141.00    1.00 : 0.50      40        1    /home/esp/scriptDevelopment/drFrankenstein/11_PCY_CHARMM/03_GOAT_conformers/GOAT_orca.goat.0.3.out
   0     2903.97    141.00    1.00 : 0.50      40        1    /home/esp/scriptDevelopment/drFrankenstein/11_PCY_CHARMM/03_GOAT_conformers/GOAT_orca.goat.0.0.out
  15      363.00    141.00    1.00 : 0.50      40        1    /home/esp/scriptDevelopment/drFrankenstein/11_PCY_CHARMM/03_GOAT_conformers/GOAT_orca.goat.0.15.out
  12     2903.97    141.00    1.00 : 0.50      40        1    /home/esp/scriptDevelopment/drFrankenstein/11_PCY_CHARMM/03_GOAT_conformers/GOAT_orca.goat.0.12.out
   5     1451.98    141.00    1.00 : 0.50      40        1    /home/esp/scriptDevelopment/drFrankenstein/11_PCY_CHARMM/03_GOAT_conformers/GOAT_orca.goat.0.5.out
   1     1451.98    141.00    1.00 : 0.50      40        1    /home/esp/scriptDevelopment/drFrankenstein/11_PCY_CHARMM/03_GOAT_conformers/GOAT_orca.goat.0.1.out
   7      363.00    141.00    1.00 : 0.50      40        1    /home/esp/scriptDevelopment/drFrankenstein/11_PCY_CHARMM/03_GOAT_conformers/GOAT_orca.goat.0.7.out
  13     1451.98    141.00    1.00 : 0.50      40        1    /home/esp/scriptDevelopment/drFrankenstein/11_PCY_CHARMM/03_GOAT_conformers/GOAT_orca.goat.0.13.out
  10      725.99    141.00    1.00 : 0.50      40        1    /home/esp/scriptDevelopment/drFrankenstein/11_PCY_CHARMM/03_GOAT_conformers/GOAT_orca.goat.0.10.out
  11      363.00    141.00    1.00 : 0.50      40        1    /home/esp/scriptDevelopment/drFrankenstein/11_PCY_CHARMM/03_GOAT_conformers/GOAT_orca.goat.0.11.out
   9     1451.98    141.00    1.00 : 0.50      40        1    /home/esp/scriptDevelopment/drFrankenstein/11_PCY_CHARMM/03_GOAT_conformers/GOAT_orca.goat.0.9.out
   6      725.99    141.00    1.00 : 0.50      40        1    /home/esp/scriptDevelopment/drFrankenstein/11_PCY_CHARMM/03_GOAT_conformers/GOAT_orca.goat.0.6.out

			     GOAT Global Iter 1
		Iter    Min En       Sconf       Gconf   
		        Hartree      cal/(molK)  kcal/mol
		=========================================

		   1    -79.877344   3.864       -0.384

List of participating nodes    ...  /home/esp/scriptDevelopment/drFrankenstein/11_PCY_CHARMM/03_GOAT_conformers/GOAT_orca.goat.1.hostnames

   7      363.00    141.00    1.00 : 0.50      40        1    /home/esp/scriptDevelopment/drFrankenstein/11_PCY_CHARMM/03_GOAT_conformers/GOAT_orca.goat.1.7.out
   2      725.99    141.00    1.00 : 0.50      40        1    /home/esp/scriptDevelopment/drFrankenstein/11_PCY_CHARMM/03_GOAT_conformers/GOAT_orca.goat.1.2.out
  12     2903.97    141.00    1.00 : 0.50      40        1    /home/esp/scriptDevelopment/drFrankenstein/11_PCY_CHARMM/03_GOAT_conformers/GOAT_orca.goat.1.12.out
   3      363.00    141.00    1.00 : 0.50      40        1    /home/esp/scriptDevelopment/drFrankenstein/11_PCY_CHARMM/03_GOAT_conformers/GOAT_orca.goat.1.3.out
   0     2903.97    141.00    1.00 : 0.50      40        1    /home/esp/scriptDevelopment/drFrankenstein/11_PCY_CHARMM/03_GOAT_conformers/GOAT_orca.goat.1.0.out
   5     1451.98    141.00    1.00 : 0.50      40        1    /home/esp/scriptDevelopment/drFrankenstein/11_PCY_CHARMM/03_GOAT_conformers/GOAT_orca.goat.1.5.out
  15      363.00    141.00    1.00 : 0.50      40        1    /home/esp/scriptDevelopment/drFrankenstein/11_PCY_CHARMM/03_GOAT_conformers/GOAT_orca.goat.1.15.out
   4     2903.97    141.00    1.00 : 0.50      40        1    /home/esp/scriptDevelopment/drFrankenstein/11_PCY_CHARMM/03_GOAT_conformers/GOAT_orca.goat.1.4.out
   1     1451.98    141.00    1.00 : 0.50      40        1    /home/esp/scriptDevelopment/drFrankenstein/11_PCY_CHARMM/03_GOAT_conformers/GOAT_orca.goat.1.1.out
   9     1451.98    141.00    1.00 : 0.50      40        1    /home/esp/scriptDevelopment/drFrankenstein/11_PCY_CHARMM/03_GOAT_conformers/GOAT_orca.goat.1.9.out
   8     2903.97    141.00    1.00 : 0.50      40        1    /home/esp/scriptDevelopment/drFrankenstein/11_PCY_CHARMM/03_GOAT_conformers/GOAT_orca.goat.1.8.out
  10      725.99    141.00    1.00 : 0.50      40        1    /home/esp/scriptDevelopment/drFrankenstein/11_PCY_CHARMM/03_GOAT_conformers/GOAT_orca.goat.1.10.out
  11      363.00    141.00    1.00 : 0.50      40        1    /home/esp/scriptDevelopment/drFrankenstein/11_PCY_CHARMM/03_GOAT_conformers/GOAT_orca.goat.1.11.out
  14      725.99    141.00    1.00 : 0.50      40        1    /home/esp/scriptDevelopment/drFrankenstein/11_PCY_CHARMM/03_GOAT_conformers/GOAT_orca.goat.1.14.out
  13     1451.98    141.00    1.00 : 0.50      40        1    /home/esp/scriptDevelopment/drFrankenstein/11_PCY_CHARMM/03_GOAT_conformers/GOAT_orca.goat.1.13.out
   6      725.99    141.00    1.00 : 0.50      40        1    /home/esp/scriptDevelopment/drFrankenstein/11_PCY_CHARMM/03_GOAT_conformers/GOAT_orca.goat.1.6.out

			     GOAT Global Iter 2
		Iter    Min En       Sconf       Gconf   
		        Hartree      cal/(molK)  kcal/mol
		=========================================

		   1    -79.877344   3.864       -0.384
		   2    -79.877344   4.336       -0.426

List of participating nodes    ...  /home/esp/scriptDevelopment/drFrankenstein/11_PCY_CHARMM/03_GOAT_conformers/GOAT_orca.goat.2.hostnames

   1     1451.98    141.00    1.00 : 0.50      40        1    /home/esp/scriptDevelopment/drFrankenstein/11_PCY_CHARMM/03_GOAT_conformers/GOAT_orca.goat.2.1.out
  15      363.00    141.00    1.00 : 0.50      40        1    /home/esp/scriptDevelopment/drFrankenstein/11_PCY_CHARMM/03_GOAT_conformers/GOAT_orca.goat.2.15.out
   3      363.00    141.00    1.00 : 0.50      40        1    /home/esp/scriptDevelopment/drFrankenstein/11_PCY_CHARMM/03_GOAT_conformers/GOAT_orca.goat.2.3.out
   9     1451.98    141.00    1.00 : 0.50      40        1    /home/esp/scriptDevelopment/drFrankenstein/11_PCY_CHARMM/03_GOAT_conformers/GOAT_orca.goat.2.9.out
   8     2903.97    141.00    1.00 : 0.50      40        1    /home/esp/scriptDevelopment/drFrankenstein/11_PCY_CHARMM/03_GOAT_conformers/GOAT_orca.goat.2.8.out
   6      725.99    141.00    1.00 : 0.50      40        1    /home/esp/scriptDevelopment/drFrankenstein/11_PCY_CHARMM/03_GOAT_conformers/GOAT_orca.goat.2.6.out
   5     1451.98    141.00    1.00 : 0.50      40        1    /home/esp/scriptDevelopment/drFrankenstein/11_PCY_CHARMM/03_GOAT_conformers/GOAT_orca.goat.2.5.out
  13     1451.98    141.00    1.00 : 0.50      40        1    /home/esp/scriptDevelopment/drFrankenstein/11_PCY_CHARMM/03_GOAT_conformers/GOAT_orca.goat.2.13.out
  10      725.99    141.00    1.00 : 0.50      40        1    /home/esp/scriptDevelopment/drFrankenstein/11_PCY_CHARMM/03_GOAT_conformers/GOAT_orca.goat.2.10.out
   2      725.99    141.00    1.00 : 0.50      40        1    /home/esp/scriptDevelopment/drFrankenstein/11_PCY_CHARMM/03_GOAT_conformers/GOAT_orca.goat.2.2.out
   7      363.00    141.00    1.00 : 0.50      40        1    /home/esp/scriptDevelopment/drFrankenstein/11_PCY_CHARMM/03_GOAT_conformers/GOAT_orca.goat.2.7.out
  12     2903.97    141.00    1.00 : 0.50      40        1    /home/esp/scriptDevelopment/drFrankenstein/11_PCY_CHARMM/03_GOAT_conformers/GOAT_orca.goat.2.12.out
  14      725.99    141.00    1.00 : 0.50      40        1    /home/esp/scriptDevelopment/drFrankenstein/11_PCY_CHARMM/03_GOAT_conformers/GOAT_orca.goat.2.14.out
   0     2903.97    141.00    1.00 : 0.50      40        1    /home/esp/scriptDevelopment/drFrankenstein/11_PCY_CHARMM/03_GOAT_conformers/GOAT_orca.goat.2.0.out
   4     2903.97    141.00    1.00 : 0.50      40        1    /home/esp/scriptDevelopment/drFrankenstein/11_PCY_CHARMM/03_GOAT_conformers/GOAT_orca.goat.2.4.out
  11      363.00    141.00    1.00 : 0.50      40        1    /home/esp/scriptDevelopment/drFrankenstein/11_PCY_CHARMM/03_GOAT_conformers/GOAT_orca.goat.2.11.out

			     GOAT Global Iter 3
		Iter    Min En       Sconf       Gconf   
		        Hartree      cal/(molK)  kcal/mol
		=========================================

		   1    -79.877344   3.864       -0.384
		   2    -79.877344   4.336       -0.426
		   3    -79.877344   4.573       -0.446

		Global minimum found!
		Writing structure to /home/esp/scriptDevelopment/drFrankenstein/11_PCY_CHARMM/03_GOAT_conformers/GOAT_orca.globalminimum.xyz

		# Final ensemble info #
		Conformer     Energy     Degen.   % total   % cumul.  
		              (kcal/mol)
		------------------------------------------------------
		        0     0.000	     1      47.11      47.11
		        1     1.040	     1       8.14      55.26
		        2     1.179	     1       6.44      61.69
		        3     1.448	     1       4.09      65.79
		        4     1.480	     1       3.88      69.66
		        5     1.511	     1       3.68      73.34
		        6     1.712	     1       2.62      75.96
		        7     1.765	     1       2.39      78.35
		        8     1.794	     1       2.28      80.63
		        9     1.881	     1       1.97      82.60
		       10     1.950	     1       1.75      84.36
		       11     2.080	     1       1.41      85.76
		       12     2.092	     1       1.38      87.14
		       13     2.115	     1       1.33      88.47
		       14     2.161	     1       1.23      89.70
		       15     2.254	     1       1.05      90.75
		       16     2.255	     1       1.05      91.80
		       17     2.295	     1       0.98      92.77
		       18     2.308	     1       0.96      93.73
		       19     2.464	     1       0.74      94.47
		       20     2.499	     1       0.69      95.16
		       21     2.509	     1       0.68      95.85
		       22     2.621	     1       0.56      96.41
		       23     2.636	     1       0.55      96.96
		       24     2.659	     1       0.53      97.49
		       25     2.776	     1       0.43      97.93
		       26     3.020	     1       0.29      98.21
		       27     3.034	     1       0.28      98.50
		       28     3.109	     1       0.25      98.74
		       29     3.289	     1       0.18      98.93
		       30     3.504	     1       0.13      99.05
		       31     3.517	     1       0.12      99.18
		       32     3.543	     1       0.12      99.30
		       33     3.688	     1       0.09      99.39
		       34     3.711	     1       0.09      99.48
		       35     3.720	     1       0.09      99.57
		       36     3.754	     1       0.08      99.65
		       37     3.981	     1       0.06      99.71
		       38     4.000	     1       0.06      99.76
		       39     4.294	     1       0.03      99.80
		       40     4.463	     1       0.03      99.82
		       41     4.587	     1       0.02      99.84
		       42     4.593	     1       0.02      99.86
		       43     4.613	     1       0.02      99.88
		       44     4.615	     1       0.02      99.90
		       45     4.691	     1       0.02      99.92
		       46     4.767	     1       0.02      99.94
		       47     4.768	     1       0.02      99.95
		       48     4.772	     1       0.01      99.97
		       49     5.032	     1       0.01      99.97
		       50     5.358	     1       0.01      99.98
		       51     5.491	     1       0.00      99.98
		       52     5.588	     1       0.00      99.99
		       53     5.610	     1       0.00      99.99
		       54     5.637	     1       0.00     100.00
		       55     5.921	     1       0.00     100.00
		       56     5.938	     1       0.00     100.00

		Conformers below 3 kcal/mol: 26
		Lowest energy conformer    : -79.877344 Eh
		Sconf at 298.15 K          :  4.57 cal/(molK)
		Gconf at 298.15 K          : -0.45 kcal/mol

		Writing final ensemble to /home/esp/scriptDevelopment/drFrankenstein/11_PCY_CHARMM/03_GOAT_conformers/GOAT_orca.finalensemble.xyz

--------------------------------
SUGGESTED CITATIONS FOR THIS RUN
--------------------------------

Below you find a list of papers that are relevant to this ORCA run
We neither can nor want to force you to cite these papers, but we appreciate if you do
You receive ORCA, which is the product of decades of hard work by many enthusiastic individuals, for free
The only thing we kindly ask in return is that you cite our papers,
We deeply appreciate it, if you show your appreciation for ORCA by not just citing the generic ORCA reference.

Please note that relegating all ORCA citations to the supporting information does *not* help us.
SI sections are not indexed - citations you put there will not count into any citation statistics
But we need these citations in order to attract the funding resources that allow us to do what we are doing

Therefore, if you are a happy ORCA user, please consider citing a few of the papers listed below in the main body of your paper

In addition to the list printed below, the program has created the file /home/esp/scriptDevelopment/drFrankenstein/11_PCY_CHARMM/03_GOAT_conformers/GOAT_orca.bibtex that contains the list in bibtex format
You can import this file easily into all common literature databanks and citation aid programs


List of essential papers. We consider these as the minimum necessary citations

  1. Bannwarth, C.; Ehlert, S.; Grimme, S.
     GFN2-xTB—An Accurate and Broadly Parametrized Self-Consistent Tight-Binding Quantum Chemical Method with Multipole Electrostatics and Density-Dependent Dispersion Contributions
     J. Chem. Theory Comput. 2019 15(3), 1652-1671
     doi.org/10.1021/acs.jctc.8b01176
  2. Neese, F.
     Software update: the ORCA program system, version 6.0
     WIRES Comput. Molec. Sci. 2025 15(1), e70019
     doi.org/10.1002/wcms.7019
  3. de Souza, B.
     GOAT: A Global Optimization Algorithm for Molecules and Atomic Clusters
     Angewandte Chemie 2025 64(18), e202500393
     doi.org/10.1002/anie.202500393

List of papers to cite with high priority. The work reported in these papers was absolutely
necessary for this run to complete.
Our perspective: the developers of density functionals and basis sets usually get cited in chemistry papers
Good! But without the algorithms to do something with them, the functionals or basis sets would not do anything.
Hence, in our opinion, the algorithm design and method developments papers are equally worthy of getting cited

  1. Bannwarth, C.; Caldeweyher, E.; Ehlert, S.; Hansen, A.; Pracht, P.; Seibert, J.; Spicher, S.; Grimme, S.
     Extended tight-binding quantum chemistry methods
     WIRES Comput. Molec. Sci. 2020 11(2), e1493
     doi.org/10.1002/wcms.1493

List of suggested additional citations. These are papers that are important in the 'surrounding' of 
of this run, or papers that preceded the highly important papers. If you like your results we are grateful for a citation.

  1. Neese, F.
     The ORCA program system
     WIRES Comput. Molec. Sci. 2012 2(1), 73-78
     doi.org/10.1002/wcms.81
  2. Neese, F.
     Software update: the ORCA program system, version 4.0
     WIRES Comput. Molec. Sci. 2018 8(1), 1-6
     doi.org/10.1002/wcms.1327
  3. Neese, F.; Wennmohs, F.; Becker, U.; Riplinger, C.
     The ORCA quantum chemistry program package
     J. Chem. Phys. 2020 152(22), 224108
     doi.org/10.1063/5.0004608
  4. Neese, F.
     Software update: The ORCA program system—Version 5.0
     WIRES Comput. Molec. Sci. 2022 12(1), e1606
     doi.org/10.1002/wcms.1606

List of optional additional citations

  1. Neese, F.
     Approximate second-order SCF convergence for spin unrestricted wavefunctions
     Chem. Phys. Lett. 2000 325(1-3), 93-98
     doi.org/10.1016/s0009-2614(00)00662-x

Timings for individual modules:

Sum of individual times          ...     1482.762 sec (=  24.713 min)
Geometry relaxation              ...        0.230 sec (=   0.004 min)   0.0 %
GOAT                             ...     1481.173 sec (=  24.686 min)  99.9 %
XTB module                       ...        1.360 sec (=   0.023 min)   0.1 %
                             ****ORCA TERMINATED NORMALLY****
TOTAL RUN TIME: 0 days 0 hours 24 minutes 43 seconds 308 msec
