75
Coordinates from ORCA-job /home/esp/scriptDevelopment/drFrankenstein/outputs/torsion_2-10-9-8/conformer_1_backwards/orca_scan Relaxed Surface Scan Step 1 E -133.310064029890
  C      19.153849    -75.202929    -10.304178
  O      19.785558    -74.514322    -11.077711
  C      19.782882    -76.282282     -9.447175
  H      20.535024    -75.830171     -8.804149
  H      19.044497    -76.797973     -8.840972
  H      20.289662    -76.993375    -10.095754
  N      17.823994    -75.044209    -10.091793
  C      17.012348    -74.179541    -10.917577
  C      15.993897    -73.390937    -10.075812
  O      15.014837    -72.858495    -10.552778
  C      16.304094    -74.991336    -12.022374
  C      15.780893    -74.119133    -13.152202
  O      15.182936    -75.700724    -11.491763
  O      16.131354    -77.991332    -11.588498
  O      15.930195    -76.919747     -9.281527
  O      13.832438    -77.520147    -10.541151
  C      16.809161    -79.086979    -11.022239
  C      14.970997    -80.594414    -11.890118
  O      15.107424    -79.980442     -9.520481
  C      14.032086    -81.789970    -11.607355
  O      15.754087    -80.866950    -13.026180
  C      13.155553    -82.021352    -12.873596
  O      13.193152    -81.598762    -10.505109
  N      11.746406    -81.982995    -12.560594
  C      11.023603    -83.109893    -12.278148
  C      11.167074    -80.757219    -12.469061
  P      15.301622    -76.997335    -10.611906
  C       9.622014    -82.974146    -12.073224
  C       9.734764    -80.717085    -12.287445
  C      11.581088    -84.387418    -12.180656
  N      11.927094    -79.696294    -12.572921
  C       8.844285    -84.114812    -11.817605
  C      10.804545    -85.496049    -11.912332
  C      11.384150    -78.468470    -12.479213
  C       9.083176    -79.382930    -12.326393
  C       9.406583    -85.364095    -11.738827
  C      11.444367    -86.841193    -11.798454
  C       8.560885    -86.565263    -11.460869
  C      15.864095    -80.248348    -10.676537
  N       9.009102    -81.776541    -12.119113
  N       9.993454    -78.357450    -12.433978
  O      12.057314    -77.449002    -12.434144
  O       7.894732    -79.186951    -12.270479
  H      17.307750    -75.747255     -9.570351
  H      17.696085    -73.470162    -11.401876
  H      17.023774    -75.724020    -12.410862
  H      16.608442    -73.612415    -13.640187
  H      15.088414    -73.388720    -12.744938
  H      15.259741    -74.740596    -13.874831
  H      13.258296    -77.390490    -11.342570
  H      17.315008    -78.776182    -10.101400
  H      17.541807    -79.404315    -11.767687
  H      14.760677    -79.076494     -9.560626
  H      14.353012    -79.727368    -12.144984
  H      16.349420    -81.601447    -12.831975
  H      14.662285    -82.685500    -11.437049
  H      13.687566    -81.081186     -9.843246
  H      13.392527    -82.967125    -13.356573
  H      13.350430    -81.205620    -13.573020
  H       7.786180    -83.962966    -11.675256
  H       9.624227    -77.412185    -12.420016
  H      11.028687    -87.523641    -12.538664
  H      11.254281    -87.269524    -10.815417
  H      12.518582    -86.778352    -11.947810
  H       8.876269    -87.051233    -10.538617
  H       8.650664    -87.293117    -12.266063
  H       7.517093    -86.281894    -11.363706
  H      16.482713    -81.121987    -10.421700
  H      12.646064    -84.522058    -12.279462
  N      16.305214    -73.324952     -8.769409
  C      15.452272    -72.686084     -7.799268
  H      17.121891    -73.814226     -8.437966
  H      16.001486    -71.913531     -7.258419
  H      14.623514    -72.232275     -8.340130
  H      15.062358    -73.417068     -7.088529
>
75
Coordinates from ORCA-job /home/esp/scriptDevelopment/drFrankenstein/outputs/torsion_2-10-9-8/conformer_1_backwards/orca_scan Relaxed Surface Scan Step 2 E -133.314711337520
  C      18.822477    -76.046801    -10.695988
  O      18.998463    -76.281136    -11.873242
  C      19.533168    -76.782901     -9.577771
  H      20.262940    -76.119119     -9.118182
  H      18.818827    -77.096170     -8.820300
  H      20.050348    -77.647514     -9.983381
  N      17.996291    -75.079456    -10.238071
  C      17.217557    -74.196024    -11.078391
  C      16.408403    -73.202437    -10.234154
  O      16.314125    -72.034758    -10.555310
  C      16.268759    -74.969434    -12.021092
  C      15.646440    -74.052413    -13.062760
  O      15.194962    -75.568988    -11.294856
  O      16.143037    -77.864188    -11.373613
  O      16.009268    -76.706087     -9.078001
  O      13.893001    -77.369637    -10.255676
  C      16.835813    -78.960783    -10.827043
  C      15.024863    -80.466947    -11.756706
  O      15.110870    -79.889570     -9.380266
  C      14.111143    -81.692732    -11.521311
  O      15.817015    -80.684213    -12.896973
  C      13.232769    -81.884163    -12.793120
  O      13.274859    -81.569954    -10.406541
  N      11.824611    -81.876927    -12.473416
  C      11.115254    -83.024604    -12.246244
  C      11.232622    -80.664068    -12.317158
  P      15.369182    -76.851876    -10.394249
  C       9.713144    -82.914904    -12.028249
  C       9.801472    -80.648864    -12.125553
  C      11.686474    -84.299589    -12.216850
  N      11.980801    -79.590144    -12.370922
  C       8.948510    -84.075677    -11.828716
  C      10.922903    -85.428753    -12.002953
  C      11.425354    -78.375239    -12.215786
  C       9.135295    -79.322307    -12.089905
  C       9.524198    -85.321111    -11.817179
  C      11.577370    -86.770911    -11.961214
  C       8.692687    -86.544123    -11.598372
  C      15.895877    -80.137576    -10.523580
  N       9.087738    -81.723517    -12.008359
  N      10.033750    -78.282535    -12.151804
  O      12.085929    -77.349558    -12.129674
  O       7.945562    -79.141565    -12.013411
  H      17.883652    -74.985562     -9.241251
  H      17.896101    -73.618887    -11.720982
  H      16.847315    -75.760858    -12.506662
  H      16.412607    -73.700668    -13.747022
  H      15.177834    -73.196985    -12.583647
  H      14.893049    -74.602690    -13.619077
  H      13.303285    -77.282560    -11.049283
  H      17.321576    -78.663589     -9.892817
  H      17.585655    -79.240636    -11.569596
  H      14.714332    -79.006715     -9.447235
  H      14.387914    -79.606297    -11.987071
  H      16.459940    -81.379546    -12.711829
  H      14.759762    -82.581926    -11.395324
  H      13.754337    -81.055726     -9.731121
  H      13.480622    -82.806094    -13.314701
  H      13.415590    -81.039103    -13.460216
  H       7.889582    -83.942565    -11.674249
  H       9.653079    -77.343813    -12.090924
  H      11.165068    -87.418970    -12.733504
  H      11.396782    -87.251070    -11.000576
  H      12.650065    -86.688967    -12.112059
  H       9.017584    -87.073657    -10.703826
  H       8.786574    -87.228326    -12.440506
  H       7.646374    -86.277603    -11.482432
  H      16.514270    -81.010043    -10.266802
  H      12.752254    -84.417977    -12.326739
  N      15.843686    -73.729582     -9.135034
  C      14.974085    -72.952244     -8.284318
  H      15.838589    -74.732795     -8.993761
  H      15.283254    -73.054675     -7.243480
  H      15.050135    -71.909646     -8.589701
  H      13.938917    -73.283951     -8.382915
>
75
Coordinates from ORCA-job /home/esp/scriptDevelopment/drFrankenstein/outputs/torsion_2-10-9-8/conformer_1_backwards/orca_scan Relaxed Surface Scan Step 3 E -133.312776341470
  C      18.617115    -76.279249     -9.924479
  O      19.075316    -76.400889    -11.043207
  C      18.980913    -77.173083     -8.762505
  H      19.405525    -76.576330     -7.958820
  H      18.084405    -77.668544     -8.397282
  H      19.707235    -77.913602     -9.085234
  N      17.745823    -75.295079     -9.597615
  C      17.302019    -74.314539    -10.567545
  C      16.677439    -73.142696     -9.792139
  O      17.326005    -72.156360     -9.514691
  C      16.408631    -74.949707    -11.650482
  C      15.886030    -73.916933    -12.638461
  O      15.281438    -75.616637    -11.074677
  O      16.016741    -77.845629    -11.931915
  O      15.914917    -77.507556     -9.382826
  O      13.789071    -77.527878    -10.703747
  C      16.904638    -78.928361    -11.740281
  C      15.045913    -80.497360    -12.369474
  O      15.700433    -80.195835    -10.024617
  C      14.174990    -81.714172    -11.983586
  O      15.590414    -80.681023    -13.654073
  C      13.124888    -81.926158    -13.113147
  O      13.501990    -81.544463    -10.770213
  N      11.773891    -81.879505    -12.605584
  C      11.110658    -83.000856    -12.189405
  C      11.197197    -80.656496    -12.475548
  P      15.299318    -77.156891    -10.673023
  C       9.747306    -82.871357    -11.802978
  C       9.799864    -80.623404    -12.110839
  C      11.695407    -84.268289    -12.124592
  N      11.922765    -79.591457    -12.707685
  C       9.027932    -84.009877    -11.405191
  C      10.978950    -85.373613    -11.714316
  C      11.381659    -78.368281    -12.576724
  C       9.129017    -79.299077    -12.117355
  C       9.614832    -85.249269    -11.358640
  C      11.648636    -86.706841    -11.638802
  C       8.832730    -86.447916    -10.926159
  C      16.175335    -80.218543    -11.349684
  N       9.116348    -81.682622    -11.811905
  N      10.003454    -78.268790    -12.375064
  O      12.044618    -77.340774    -12.625825
  O       7.953776    -79.111069    -11.921743
  H      17.254536    -75.355645     -8.720170
  H      18.198386    -73.935901    -11.076168
  H      17.016889    -75.691989    -12.176402
  H      16.720986    -73.433499    -13.136844
  H      15.293807    -73.162554    -12.127166
  H      15.262039    -74.408221    -13.379962
  H      13.271711    -77.361036    -11.530580
  H      17.639423    -78.681322    -10.969139
  H      17.409627    -79.057105    -12.699871
  H      15.710396    -79.281854     -9.680248
  H      14.386610    -79.626559    -12.437985
  H      16.230814    -81.402773    -13.624945
  H      14.830296    -82.605269    -11.924100
  H      14.111073    -81.079498    -10.167708
  H      13.279915    -82.870946    -13.631383
  H      13.227405    -81.105361    -13.826210
  H       7.996268    -83.864024    -11.127082
  H       9.623439    -77.328468    -12.344832
  H      11.147365    -87.421925    -12.289839
  H      11.600013    -87.098315    -10.623744
  H      12.691705    -86.638460    -11.934478
  H       9.276587    -86.894946    -10.037717
  H       8.825057    -87.204964    -11.709095
  H       7.807088    -86.172129    -10.699675
  H      16.906147    -81.043930    -11.408771
  H      12.739794    -84.393476    -12.359738
  N      15.413339    -73.355077     -9.388707
  C      14.673802    -72.385684     -8.618017
  H      14.935432    -74.192858     -9.688290
  H      14.329857    -72.826431     -7.681071
  H      15.342458    -71.553065     -8.404682
  H      13.810152    -72.022702     -9.178306
>
75
Coordinates from ORCA-job /home/esp/scriptDevelopment/drFrankenstein/outputs/torsion_2-10-9-8/conformer_1_backwards/orca_scan Relaxed Surface Scan Step 4 E -133.310834452890
  C      18.496231    -76.414545     -9.702076
  O      18.799969    -76.725408    -10.839554
  C      18.892594    -77.224652     -8.490635
  H      19.308839    -76.584897     -7.716987
  H      18.002540    -77.719359     -8.108415
  H      19.622506    -77.975061     -8.780360
  N      17.773533    -75.317208     -9.398337
  C      17.294187    -74.327660    -10.348261
  C      16.500971    -73.311382     -9.502923
  O      17.085283    -72.631208     -8.682020
  C      16.566883    -74.975737    -11.537494
  C      16.207834    -73.962856    -12.618788
  O      15.373385    -75.641417    -11.117590
  O      15.991574    -77.840374    -12.122625
  O      16.009643    -77.645531     -9.551006
  O      13.835646    -77.513419    -10.791148
  C      16.904803    -78.918629    -12.043946
  C      15.020543    -80.485909    -12.585591
  O      15.863137    -80.281078    -10.289851
  C      14.183006    -81.717193    -12.172666
  O      15.464182    -80.628992    -13.914078
  C      13.046206    -81.895821    -13.220848
  O      13.608997    -81.589069    -10.904539
  N      11.738626    -81.837144    -12.610801
  C      11.105289    -82.954083    -12.139882
  C      11.178305    -80.611285    -12.441226
  P      15.361312    -77.203293    -10.793790
  C       9.775464    -82.818831    -11.652605
  C       9.811359    -80.572652    -11.974599
  C      11.690483    -84.222683    -12.113505
  N      11.888098    -79.549477    -12.728891
  C       9.085515    -83.953350    -11.195778
  C      11.004723    -85.323791    -11.644011
  C      11.362549    -78.323598    -12.562130
  C       9.145376    -79.246403    -11.938950
  C       9.671711    -85.193930    -11.187009
  C      11.675535    -86.658308    -11.611472
  C       8.921954    -86.388287    -10.689793
  C      16.226234    -80.234478    -11.648605
  N       9.148527    -81.628185    -11.621277
  N      10.001236    -78.220098    -12.263854
  O      12.022439    -77.298431    -12.659526
  O       7.987404    -79.054119    -11.660453
  H      17.562598    -75.139660     -8.428810
  H      18.163219    -73.791950    -10.762050
  H      17.245972    -75.721102    -11.961817
  H      17.117681    -73.571204    -13.064518
  H      15.628932    -73.136043    -12.216700
  H      15.624155    -74.459367    -13.389199
  H      13.309498    -77.327299    -11.604657
  H      17.701376    -78.682116    -11.332973
  H      17.324212    -79.006492    -13.048670
  H      15.882522    -79.379426     -9.909057
  H      14.357560    -79.615296    -12.576776
  H      16.112301    -81.343375    -13.953197
  H      14.841982    -82.607394    -12.195457
  H      14.270690    -81.151058    -10.336941
  H      13.144347    -82.835828    -13.761761
  H      13.107359    -81.066186    -13.928363
  H       8.078154    -83.803560    -10.841156
  H       9.626844    -77.278680    -12.209380
  H      11.125312    -87.376051    -12.218607
  H      11.703088    -87.043658    -10.593289
  H      12.693450    -86.593753    -11.985309
  H       9.430459    -86.831028     -9.834462
  H       8.854042    -87.149959    -11.465320
  H       7.916743    -86.108741    -10.388561
  H      16.959344    -81.045012    -11.806172
  H      12.714130    -84.350587    -12.425366
  N      15.175115    -73.271836     -9.698024
  C      14.311495    -72.429969     -8.904857
  H      14.742250    -73.981715    -10.270926
  H      13.682522    -73.030532     -8.245216
  H      14.941344    -71.775440     -8.304433
  H      13.674673    -71.828857     -9.555081
>
75
Coordinates from ORCA-job /home/esp/scriptDevelopment/drFrankenstein/outputs/torsion_2-10-9-8/conformer_1_backwards/orca_scan Relaxed Surface Scan Step 5 E -133.310334870620
  C      18.581068    -76.427627     -9.770606
  O      18.818374    -76.740853    -10.925453
  C      19.037698    -77.257624     -8.592271
  H      19.471729    -76.631687     -7.817563
  H      18.167341    -77.772317     -8.190772
  H      19.765065    -77.992396     -8.925634
  N      17.907890    -75.324317     -9.402218
  C      17.221575    -74.348477    -10.227113
  C      16.211446    -73.681172     -9.264886
  O      16.555042    -73.452008     -8.120416
  C      16.645153    -74.933832    -11.525674
  C      16.425125    -73.870268    -12.597776
  O      15.407373    -75.605992    -11.282185
  O      16.029491    -77.823888    -12.231292
  O      16.056438    -77.565576     -9.665981
  O      13.874490    -77.472867    -10.908084
  C      16.932877    -78.908340    -12.130943
  C      15.035365    -80.474883    -12.626191
  O      15.885077    -80.216121    -10.339139
  C      14.186114    -81.684857    -12.176184
  O      15.474277    -80.661456    -13.951047
  C      13.045934    -81.882103    -13.217558
  O      13.615235    -81.513757    -10.911808
  N      11.740523    -81.805283    -12.605083
  C      11.105662    -82.908610    -12.105271
  C      11.185565    -80.573606    -12.461206
  P      15.399192    -77.157979    -10.915476
  C       9.779233    -82.757183    -11.613650
  C       9.821640    -80.519104    -11.987142
  C      11.686146    -84.178633    -12.053398
  N      11.897119    -79.521647    -12.778655
  C       9.087717    -83.878266    -11.127064
  C      10.999000    -85.266068    -11.555016
  C      11.377575    -78.290054    -12.636559
  C       9.160959    -79.189812    -11.977358
  C       9.669269    -85.120606    -11.093303
  C      11.664934    -86.602175    -11.496039
  C       8.917973    -86.300355    -10.564431
  C      16.245471    -80.207988    -11.699355
  N       9.157030    -81.563603    -11.605559
  N      10.018539    -78.174605    -12.330633
  O      12.040145    -77.270000    -12.762227
  O       8.005338    -78.986720    -11.696324
  H      17.748364    -75.167624     -8.413553
  H      17.940917    -73.563112    -10.516822
  H      17.366300    -75.664173    -11.904685
  H      17.387583    -73.533592    -12.972959
  H      15.879074    -73.010369    -12.218441
  H      15.865379    -74.309689    -13.419088
  H      13.347081    -77.294225    -11.721614
  H      17.735470    -78.660399    -11.430648
  H      17.345485    -79.024987    -13.135588
  H      15.918490    -79.305615     -9.980459
  H      14.381566    -79.597482    -12.641233
  H      16.119270    -81.379485    -13.969217
  H      14.835706    -82.582221    -12.173428
  H      14.281554    -81.063977    -10.358838
  H      13.139543    -82.833746    -13.738548
  H      13.107825    -81.068026    -13.942781
  H       8.083033    -83.716482    -10.770112
  H       9.648101    -77.230756    -12.294815
  H      11.108247    -87.331473    -12.083187
  H      11.697414    -86.964178    -10.469466
  H      12.680740    -86.550165    -11.877506
  H       9.429856    -86.725277     -9.702102
  H       8.842599    -87.079381    -11.321828
  H       7.915624    -86.010028    -10.263844
  H      16.972003    -81.028108    -11.837589
  H      12.707350    -84.317716    -12.368484
  N      15.012386    -73.346601     -9.762384
  C      13.982076    -72.783731     -8.919033
  H      14.705228    -73.783193    -10.617961
  H      13.223461    -73.530254     -8.676790
  H      14.450745    -72.439070     -7.999070
  H      13.510322    -71.943152     -9.428380
>
75
Coordinates from ORCA-job /home/esp/scriptDevelopment/drFrankenstein/outputs/torsion_2-10-9-8/conformer_1_backwards/orca_scan Relaxed Surface Scan Step 6 E -133.309169991820
  C      18.750925    -76.354174     -9.826883
  O      19.109758    -76.473354    -10.986527
  C      19.199830    -77.293438     -8.729352
  H      19.592964    -76.734453     -7.884623
  H      18.338190    -77.870638     -8.400298
  H      19.962347    -77.965330     -9.113215
  N      17.941458    -75.380425     -9.373731
  C      17.180654    -74.410875    -10.129208
  C      16.041555    -73.983489     -9.176427
  O      16.094706    -74.249838     -7.992682
  C      16.674057    -74.943325    -11.486869
  C      16.628417    -73.879463    -12.578934
  O      15.377920    -75.528601    -11.346814
  O      15.962712    -77.771690    -12.253888
  O      16.005439    -77.468361     -9.709956
  O      13.802833    -77.376326    -10.941960
  C      16.884823    -78.833674    -12.112289
  C      15.015613    -80.433524    -12.607621
  O      15.835714    -80.130748    -10.314875
  C      14.174557    -81.646132    -12.149780
  O      15.472766    -80.634555    -13.924026
  C      13.046588    -81.867710    -13.199497
  O      13.589288    -81.465249    -10.893460
  N      11.734690    -81.796368    -12.600356
  C      11.105999    -82.900155    -12.093640
  C      11.165909    -80.568827    -12.476797
  P      15.325952    -77.072077    -10.951068
  C       9.772912    -82.756616    -11.617931
  C       9.796301    -80.522931    -12.018486
  C      11.699009    -84.163268    -12.019869
  N      11.870121    -79.513181    -12.799084
  C       9.087908    -83.878787    -11.124645
  C      11.017960    -85.251592    -11.515069
  C      11.335594    -78.285741    -12.678382
  C       9.121407    -79.200884    -12.032549
  C       9.681955    -85.114407    -11.069151
  C      11.697111    -86.579736    -11.432231
  C       8.937456    -86.295295    -10.533302
  C      16.211070    -80.138334    -11.670768
  N       9.138328    -81.569696    -11.631590
  N       9.972431    -78.180902    -12.388232
  O      11.987619    -77.259634    -12.811760
  O       7.960425    -79.006924    -11.767903
  H      17.597449    -75.450581     -8.418076
  H      17.809606    -73.526909    -10.321447
  H      17.374020    -75.717445    -11.814863
  H      17.644807    -73.603076    -12.845696
  H      16.093482    -72.982102    -12.276322
  H      16.138483    -74.298179    -13.454114
  H      13.277857    -77.222193    -11.763580
  H      17.664748    -78.564905    -11.393510
  H      17.326936    -78.961506    -13.102883
  H      15.850987    -79.213843     -9.970609
  H      14.352422    -79.563720    -12.643604
  H      16.122777    -81.348311    -13.924618
  H      14.833062    -82.536772    -12.129489
  H      14.244904    -81.001984    -10.338916
  H      13.154525    -82.824871    -13.707462
  H      13.107373    -81.062250    -13.934361
  H       8.077885    -83.723108    -10.780276
  H       9.591869    -77.240624    -12.368329
  H      11.154213    -87.322218    -12.015753
  H      11.722595    -86.928378    -10.400847
  H      12.716264    -86.521867    -11.803797
  H       9.444582    -86.703885     -9.660339
  H       8.878274    -87.084539    -11.281501
  H       7.929002    -86.011836    -10.246928
  H      16.950205    -80.950194    -11.788474
  H      12.724909    -84.295584    -12.322388
  N      15.045300    -73.272232     -9.728547
  C      13.870611    -72.913254     -8.965982
  H      14.935239    -73.289040    -10.729177
  H      13.035113    -73.576549     -9.198016
  H      14.115127    -73.006459     -7.909809
  H      13.590104    -71.883859     -9.189560
>
75
Coordinates from ORCA-job /home/esp/scriptDevelopment/drFrankenstein/outputs/torsion_2-10-9-8/conformer_1_backwards/orca_scan Relaxed Surface Scan Step 7 E -133.311644260020
  C      18.882424    -74.918869     -8.832159
  O      19.378256    -73.996447     -9.450411
  C      19.643234    -75.798920     -7.866927
  H      19.212340    -75.714037     -6.872434
  H      19.571849    -76.835007     -8.188912
  H      20.685071    -75.493679     -7.838735
  N      17.572626    -75.232140     -8.926751
  C      16.705481    -74.595414     -9.879359
  C      15.272342    -75.028243     -9.545990
  O      15.048410    -75.934056     -8.772182
  C      17.044251    -75.023200    -11.336491
  C      17.179725    -73.846837    -12.288138
  O      16.027190    -75.893522    -11.834285
  O      16.480095    -78.121454    -12.787516
  O      16.999445    -77.784580    -10.314347
  O      14.582102    -77.813343    -11.127492
  C      17.210496    -79.326102    -12.749487
  C      15.051563    -80.599032    -12.966694
  O      16.216592    -80.442911    -10.810682
  C      14.092544    -81.657315    -12.379092
  O      15.286678    -80.866012    -14.329177
  C      12.809038    -81.672178    -13.261753
  O      13.722676    -81.396458    -11.057829
  N      11.615370    -81.553851    -12.458486
  C      10.954088    -82.643146    -11.962771
  C      11.222401    -80.299226    -12.116077
  P      16.065558    -77.419153    -11.386794
  C       9.751855    -82.425970    -11.233132
  C       9.977463    -80.173318    -11.394364
  C      11.389860    -83.959842    -12.134999
  N      11.970549    -79.286141    -12.475838
  C       9.030086    -83.525705    -10.741599
  C      10.677020    -85.028152    -11.631168
  C      11.620489    -78.037578    -12.128982
  C       9.482872    -78.799435    -11.129295
  C       9.466896    -84.812703    -10.929864
  C      11.188792    -86.418790    -11.821285
  C       8.686748    -85.969484    -10.392483
  C      16.394783    -80.506301    -12.204551
  N       9.278684    -81.188827    -10.995620
  N      10.370795    -77.832489    -11.541719
  O      12.351457    -77.070930    -12.307351
  O       8.427800    -78.523323    -10.614173
  H      17.197549    -76.087140     -8.533051
  H      16.819858    -73.509467     -9.785766
  H      17.991797    -75.570686    -11.304493
  H      17.990694    -73.211185    -11.943644
  H      16.258223    -73.271547    -12.334507
  H      17.407097    -74.210950    -13.286445
  H      13.877379    -77.448521    -11.712335
  H      18.101554    -79.203468    -12.123595
  H      17.503053    -79.522570    -13.783632
  H      16.422145    -79.547437    -10.483429
  H      14.544554    -79.630954    -12.926890
  H      15.791892    -81.685118    -14.405224
  H      14.586918    -82.647305    -12.436565
  H      14.501054    -81.019463    -10.607787
  H      12.750896    -82.572593    -13.870510
  H      12.837955    -80.798689    -13.915929
  H       8.122631    -83.312198    -10.199498
  H      10.119209    -76.870095    -11.342240
  H      10.462655    -87.020447    -12.366397
  H      11.352301    -86.897342    -10.856791
  H      12.125178    -86.419768    -12.372059
  H       9.284259    -86.536806     -9.680247
  H       8.398925    -86.645861    -11.196153
  H       7.787725    -85.622714     -9.891697
  H      16.968977    -81.428117    -12.405499
  H      12.320352    -84.158900    -12.641346
  N      14.316873    -74.310500    -10.161289
  C      12.922516    -74.688528    -10.099501
  H      14.584110    -73.672165    -10.893250
  H      12.617646    -75.201558    -11.013807
  H      12.805727    -75.366171     -9.255973
  H      12.308304    -73.800618     -9.948053
>
75
Coordinates from ORCA-job /home/esp/scriptDevelopment/drFrankenstein/outputs/torsion_2-10-9-8/conformer_1_backwards/orca_scan Relaxed Surface Scan Step 8 E -133.313013777970
  C      17.765734    -74.941567     -8.291268
  O      17.793883    -73.734766     -8.144181
  C      18.165902    -75.932983     -7.223477
  H      17.294056    -76.509038     -6.921942
  H      18.914677    -76.618617     -7.610929
  H      18.562364    -75.401278     -6.363502
  N      17.399615    -75.525635     -9.454606
  C      16.859496    -74.745675    -10.541590
  C      15.337698    -74.874487    -10.520857
  O      14.815822    -75.976146    -10.499604
  C      17.383367    -75.258582    -11.906101
  C      17.599222    -74.111262    -12.885061
  O      16.464254    -76.143345    -12.523371
  O      16.821038    -78.496202    -13.071518
  O      16.702733    -77.941585    -10.613359
  O      14.635058    -77.861523    -12.283660
  C      17.446194    -79.729019    -12.794062
  C      15.189249    -80.849198    -12.929644
  O      16.395830    -80.593842    -10.773100
  C      14.043571    -81.582193    -12.194274
  O      15.388700    -81.440444    -14.193713
  C      12.732983    -81.303847    -12.980965
  O      13.838151    -81.178472    -10.873186
  N      11.596221    -81.352128    -12.090948
  C      10.977811    -82.521583    -11.748115
  C      11.259032    -80.186476    -11.472600
  P      16.121120    -77.580839    -11.930516
  C       9.923751    -82.475884    -10.794437
  C      10.183684    -80.238615    -10.507392
  C      11.320175    -83.764675    -12.289562
  N      11.902759    -79.095606    -11.794271
  C       9.253268    -83.658347    -10.443877
  C      10.654682    -84.918098    -11.929715
  C      11.636818    -77.935214    -11.171629
  C       9.804662    -78.964043     -9.845526
  C       9.596480    -84.868591    -10.992520
  C      11.056031    -86.226234    -12.531087
  C       8.869998    -86.116540    -10.603064
  C      16.532007    -80.792820    -12.158128
  N       9.554322    -81.326633    -10.196423
  N      10.589929    -77.908708    -10.240825
  O      12.262065    -76.909069    -11.383970
  O       8.907867    -78.834345     -9.047473
  H      17.223618    -76.524681     -9.523904
  H      17.181544    -73.712292    -10.376157
  H      18.329727    -75.784281    -11.724253
  H      18.343882    -73.422022    -12.497376
  H      16.661749    -73.585759    -13.047095
  H      17.938942    -74.508361    -13.837443
  H      13.901689    -77.362173    -11.858151
  H      18.297884    -79.578201    -12.119982
  H      17.804124    -80.085661    -13.763581
  H      16.459768    -79.629870    -10.581997
  H      14.868582    -79.825261    -13.129076
  H      15.756852    -82.324847    -14.070949
  H      14.259110    -82.670055    -12.210570
  H      14.711738    -80.943100    -10.503018
  H      12.609291    -81.998467    -13.809153
  H      12.774880    -80.280913    -13.358093
  H       8.459199    -83.573689     -9.719102
  H      10.405987    -77.014323     -9.798845
  H      10.215285    -86.677252    -13.056423
  H      11.367535    -86.922023    -11.753202
  H      11.876075    -86.099480    -13.232448
  H       9.556506    -86.839358    -10.164333
  H       8.411070    -86.582066    -11.474306
  H       8.092122    -85.893612     -9.878774
  H      17.034747    -81.768458    -12.267758
  H      12.128129    -83.839703    -12.999444
  N      14.640873    -73.733247    -10.550231
  C      13.195091    -73.720384    -10.558912
  H      15.122192    -72.851455    -10.466484
  H      12.836072    -73.050320    -11.339759
  H      12.856987    -74.736199    -10.764022
  H      12.804473    -73.391332     -9.594114
>
75
Coordinates from ORCA-job /home/esp/scriptDevelopment/drFrankenstein/outputs/torsion_2-10-9-8/conformer_1_backwards/orca_scan Relaxed Surface Scan Step 9 E -133.334270031230
  C      14.772171    -77.280026     -8.043320
  O      14.727182    -76.341499     -7.265632
  C      14.189223    -78.631593     -7.744564
  H      13.230659    -78.701355     -8.260698