47
Coordinates from ORCA-job /home/esp/scriptDevelopment/drFrankenstein/11_PCY_CHARMM/04_torsion_scanning/torsion_NH1-CT1-CG321-CG2R61/scans_PCY_conformer_21/PCY_conformer_21_backwards/orca_scan Relaxed Surface Scan Step 1 E -79.901533500860
  H      -0.917203     -1.808890      3.024736
  H      -1.060865     -2.148562     -0.531978
  H      -3.933068      0.026672      0.490297
  H      -1.937524      4.532553      0.936933
  H      -1.806386     -3.217038      2.450733
  H      -3.630548      2.414479     -0.067605
  H       0.130479     -0.172392      1.792696
  H      -0.336533      4.188511      0.274428
  H       2.880141     -3.715289     -1.051997
  H       0.424694      2.174333      1.243563
  H       3.026467     -4.088984      1.393818
  H      -3.086539      5.231183     -2.387488
  H       0.803113     -2.757757     -2.006529
  N      -2.896108      5.165987     -1.380665
  C      -1.908874      4.263746     -1.150049
  C      -1.427959      3.652105     -2.381154
  C      -1.396623      3.928731      0.205104
  O      -1.913030      4.006599     -3.475470
  C      -1.576362      2.464646      0.536961
  C      -2.805519      1.844534      0.331612
  C      -2.983929      0.514567      0.643265
  C      -1.932888     -0.234058      1.175688
  C      -0.703726      0.377056      1.386862
  C      -0.536250      1.714584      1.065612
  O      -2.217099     -1.545601      1.438979
  C      -1.260487     -2.326803      2.120516
  C      -0.093776     -2.748917      1.264204
  C      -0.159223     -2.566063     -0.112190
  C       0.892308     -2.909475     -0.943001
  C       2.055698     -3.449454     -0.411406
  C       2.145142     -3.655911      0.946963
  C       1.079491     -3.319366      1.788968
  N       1.245420     -3.590413      3.168327
  O       0.274284     -3.523780      3.922477
  O       2.366590     -3.893617      3.576885
  C       0.075242      2.026323     -3.424609
  N      -0.443026      2.738306     -2.283034
  H      -0.154741      2.424066     -1.369405
  H      -0.217871      0.976355     -3.387713
  H      -0.339143      2.483375     -4.321431
  H       1.161839      2.097412     -3.445944
  C      -3.640284      5.947276     -0.534223
  O      -3.496259      5.951070      0.682002
  C      -4.645829      6.793344     -1.260622
  H      -5.204881      7.383356     -0.540758
  H      -4.138762      7.456991     -1.956698
  H      -5.330573      6.162219     -1.821667
>
47
Coordinates from ORCA-job /home/esp/scriptDevelopment/drFrankenstein/11_PCY_CHARMM/04_torsion_scanning/torsion_NH1-CT1-CG321-CG2R61/scans_PCY_conformer_21/PCY_conformer_21_backwards/orca_scan Relaxed Surface Scan Step 2 E -79.901388605190
  H      -0.786477     -1.709235      3.087057
  H      -1.332999     -2.113011     -0.427611
  H      -3.975960      0.229741      0.871971
  H      -1.870953      4.640844      0.916795
  H      -1.793328     -3.083614      2.639433
  H      -3.631623      2.596637      0.250219
  H       0.195809     -0.144468      1.710375
  H      -0.256597      4.256949      0.296357
  H       2.457822     -3.864836     -1.331788
  H       0.530835      2.180537      1.104807
  H       2.860538     -4.183304      1.093167
  H      -3.078532      5.018961     -2.447428
  H       0.328538     -2.839507     -2.079243
  N      -2.915679      4.998063     -1.434069
  C      -1.812739      4.258900     -1.153732
  C      -1.216179      3.689315     -2.353732
  C      -1.316606      4.003960      0.225204
  O      -1.693961      3.968411     -3.472636
  C      -1.521937      2.555257      0.614465
  C      -2.792611      1.991171      0.557257
  C      -2.994459      0.674458      0.907930
  C      -1.924271     -0.117071      1.328508
  C      -0.653194      0.438530      1.391134
  C      -0.463359      1.763902      1.033123
  O      -2.235608     -1.410832      1.643428
  C      -1.246819     -2.224841      2.235110
  C      -0.199157     -2.714790      1.268230
  C      -0.409011     -2.560986     -0.097221
  C       0.529211     -2.969848     -1.028094
  C       1.721419     -3.547318     -0.612320
  C       1.953122     -3.723775      0.733443
  C       1.001687     -3.321310      1.676977
  N       1.309082     -3.563198      3.037458
  O       0.426136     -3.453599      3.888553
  O       2.460584     -3.884360      3.331481
  C       0.504447      2.229463     -3.304692
  N      -0.141157      2.892298     -2.198831
  H       0.137118      2.619131     -1.269609
  H       0.342535      1.152133     -3.254522
  H       0.072467      2.615909     -4.226050
  H       1.574244      2.434023     -3.288695
  C      -3.781362      5.695073     -0.630157
  O      -3.680255      5.742164      0.589263
  C      -4.864347      6.386062     -1.407615
  H      -5.516798      6.916010     -0.720336
  H      -4.426496      7.092540     -2.108422
  H      -5.444102      5.657470     -1.968951
>
47
Coordinates from ORCA-job /home/esp/scriptDevelopment/drFrankenstein/11_PCY_CHARMM/04_torsion_scanning/torsion_NH1-CT1-CG321-CG2R61/scans_PCY_conformer_21/PCY_conformer_21_backwards/orca_scan Relaxed Surface Scan Step 3 E -79.901034236710
  H      -0.654667     -1.629970      3.142844
  H      -1.572539     -1.993291     -0.293234
  H      -3.974286      0.424268      1.221268
  H      -1.812452      4.742028      0.879915
  H      -1.760946     -2.960713      2.814091
  H      -3.597934      2.764601      0.525485
  H       0.239209     -0.102047      1.686475
  H      -0.183037      4.326107      0.315332
  H       2.011760     -3.930447     -1.578201
  H       0.606237      2.195968      1.012208
  H       2.638480     -4.288575      0.792854
  H      -3.056507      4.748959     -2.503569
  H      -0.126091     -2.789771     -2.104497
  N      -2.912969      4.791119     -1.487919
  C      -1.716678      4.238289     -1.163433
  C      -1.023238      3.718588     -2.334278
  C      -1.240628      4.071506      0.236303
  O      -1.508444      3.902112     -3.469666
  C      -1.466502      2.643467      0.691438
  C      -2.757717      2.130379      0.762516
  C      -2.977062      0.829183      1.157543
  C      -1.903995      0.001766      1.492959
  C      -0.612508      0.507999      1.431369
  C      -0.405875      1.818634      1.031138
  O      -2.235215     -1.273655      1.858496
  C      -1.224500     -2.127247      2.348069
  C      -0.306386     -2.663504      1.279414
  C      -0.644439     -2.489907     -0.057622
  C       0.172663     -2.939437     -1.079536
  C       1.368922     -3.580820     -0.787438
  C       1.724862     -3.779669      0.527692
  C       0.896141     -3.334881      1.563699
  N       1.326486     -3.603167      2.885219
  O       0.549325     -3.432066      3.824925
  O       2.475900     -4.009468      3.057792
  C       0.894659      2.470655     -3.209371
  N       0.138404      3.066880     -2.136445
  H       0.439130      2.873548     -1.195004
  H       0.921056      1.386100     -3.100888
  H       0.407061      2.729493     -4.147490
  H       1.913528      2.857446     -3.210596
  C      -3.871173      5.415421     -0.730642
  O      -3.791370      5.547036      0.484014
  C      -5.027468      5.908225     -1.552355
  H      -5.754421      6.383197     -0.900546
  H      -4.679802      6.626586     -2.290674
  H      -5.495952      5.077082     -2.073667
>
47
Coordinates from ORCA-job /home/esp/scriptDevelopment/drFrankenstein/11_PCY_CHARMM/04_torsion_scanning/torsion_NH1-CT1-CG321-CG2R61/scans_PCY_conformer_21/PCY_conformer_21_backwards/orca_scan Relaxed Surface Scan Step 4 E -79.900253469510
  H      -0.552327     -1.580513      3.177467
  H      -1.792375     -1.880164     -0.162874
  H      -3.953220      0.612744      1.572339
  H      -1.770512      4.822274      0.841448
  H      -1.734195     -2.866436      2.947391
  H      -3.552657      2.927006      0.814596
  H       0.260451     -0.085371      1.630643
  H      -0.123933      4.384613      0.345413
  H       1.591174     -3.928193     -1.776767
  H       0.652162      2.183875      0.888522
  H       2.410655     -4.337854      0.526387
  H      -3.007608      4.434599     -2.541347
  H      -0.541109     -2.704705     -2.101418
  N      -2.884943      4.558478     -1.529443
  C      -1.623183      4.208556     -1.168488
  C      -0.850282      3.739117     -2.311464
  C      -1.176965      4.123547      0.248941
  O      -1.346920      3.800601     -3.455222
  C      -1.422006      2.717551      0.763163
  C      -2.719155      2.260566      0.971495
  C      -2.951152      0.973333      1.404093
  C      -1.885667      0.103574      1.640968
  C      -0.587002      0.556169      1.449123
  C      -0.368103      1.852105      1.010933
  O      -2.230777     -1.155662      2.047953
  C      -1.211950     -2.050201      2.436978
  C      -0.416522     -2.611543      1.286032
  C      -0.865927     -2.412161     -0.014121
  C      -0.159176     -2.878279     -1.108352
  C       1.033874     -3.565488     -0.929016
  C       1.496864     -3.792882      0.347608
  C       0.780472     -3.329729      1.456722
  N       1.315482     -3.628990      2.732571
  O       0.631472     -3.440235      3.738908
  O       2.459283     -4.079832      2.799049
  C       1.224826      2.725004     -3.128531
  N       0.389176      3.265066     -2.085256
  H       0.718540      3.180030     -1.137837
  H       1.401637      1.661779     -2.962959
  H       0.708396      2.862790     -4.076735
  H       2.179717      3.249571     -3.155241
  C      -3.907755      5.145193     -0.828980
  O      -3.842122      5.411495      0.364194
  C      -5.115489      5.410773     -1.680819
  H      -5.892250      5.862927     -1.071547
  H      -4.857241      6.083262     -2.495083
  H      -5.482636      4.479650     -2.105443
>
47
Coordinates from ORCA-job /home/esp/scriptDevelopment/drFrankenstein/11_PCY_CHARMM/04_torsion_scanning/torsion_NH1-CT1-CG321-CG2R61/scans_PCY_conformer_21/PCY_conformer_21_backwards/orca_scan Relaxed Surface Scan Step 5 E -79.899555507030
  H      -0.058141     -1.408801      3.087068
  H      -2.370686     -1.796527      0.393173
  H      -3.668890      0.960848      2.542750
  H      -1.977792      4.894985      0.703938
  H      -1.321277     -2.602527      3.375305
  H      -3.392648      3.214688      1.567744
  H       0.275395     -0.064553      1.262371
  H      -0.236069      4.621659      0.497694
  H       0.114165     -4.244436     -2.073188
  H       0.547532      2.149210      0.315452
  H       1.645587     -4.580270     -0.153505
  H      -2.659418      3.851384     -2.722642
  H      -1.914860     -2.852180     -1.771963
  N      -2.707723      4.082910     -1.723900
  C      -1.457541      4.124571     -1.191341
  C      -0.435963      3.878244     -2.200121
  C      -1.227069      4.231026      0.273989
  O      -0.780798      3.668139     -3.381657
  C      -1.397400      2.850070      0.882809
  C      -2.589361      2.496492      1.505459
  C      -2.751842      1.240156      2.049279
  C      -1.723472      0.300246      1.979044
  C      -0.534782      0.642263      1.346134
  C      -0.383310      1.907353      0.803984
  O      -1.992524     -0.913630      2.549917
  C      -0.956238     -1.864943      2.652462
  C      -0.634186     -2.560845      1.354531
  C      -1.486355     -2.401341      0.268154
  C      -1.228727     -2.997606     -0.953317
  C      -0.094115     -3.779445     -1.123861
  C       0.762706     -3.966893     -0.062575
  C       0.500745     -3.371949      1.176539
  N       1.420785     -3.636855      2.218863
  O       1.137975     -3.322463      3.375483
  O       2.486750     -4.185204      1.936708
  C       1.945873      3.679832     -2.741305
  N       0.857150      3.898113     -1.821848
  H       1.094831      4.122118     -0.869226
  H       2.544180      2.826100     -2.421952
  H       1.520111      3.477028     -3.722342
  H       2.581406      4.563927     -2.798075
  C      -3.930560      4.423385     -1.204266
  O      -4.089258      4.822814     -0.059203
  C      -5.046865      4.254517     -2.194197
  H      -5.986176      4.535826     -1.727933
  H      -4.873029      4.881984     -3.064861
  H      -5.099097      3.218593     -2.519584
>
47
Coordinates from ORCA-job /home/esp/scriptDevelopment/drFrankenstein/11_PCY_CHARMM/04_torsion_scanning/torsion_NH1-CT1-CG321-CG2R61/scans_PCY_conformer_21/PCY_conformer_21_backwards/orca_scan Relaxed Surface Scan Step 6 E -79.898991568240
  H       0.096669     -1.370940      3.002377
  H      -2.603022     -1.702486      0.678963
  H      -3.451479      1.149325      2.932302
  H      -2.027674      4.909820      0.600128
  H      -1.162015     -2.507018      3.481012
  H      -3.238335      3.368036      1.866273
  H       0.215274     -0.069834      1.110520
  H      -0.267683      4.707941      0.523145
  H      -0.576571     -4.240863     -2.096478
  H       0.428886      2.116836      0.076855
  H       1.211489     -4.605148     -0.419066
  H      -2.402641      3.538674     -2.790893
  H      -2.500861     -2.789707     -1.516536
  N      -2.537925      3.785237     -1.804392
  C      -1.346936      4.095052     -1.224456
  C      -0.248712      4.022137     -2.177883
  C      -1.221802      4.263087      0.247288
  O      -0.492468      3.750770     -3.372281
  C      -1.378844      2.907175      0.910923
  C      -2.476556      2.619791      1.712505
  C      -2.606179      1.380795      2.304315
  C      -1.639212      0.395576      2.105594
  C      -0.543911      0.673177      1.296498
  C      -0.424523      1.920233      0.707839
  O      -1.871268     -0.796319      2.736625
  C      -0.871942     -1.791131      2.704474
  C      -0.765514     -2.509342      1.383340
  C      -1.763993     -2.334028      0.432454
  C      -1.705605     -2.947508     -0.806114
  C      -0.630019     -3.762594     -1.132505
  C       0.368531     -3.966123     -0.206710
  C       0.307928     -3.354482      1.050331
  N       1.363581     -3.637625      1.949367
  O       1.257213     -3.316933      3.133749
  O       2.366518     -4.207496      1.517790
  C       2.156554      4.227002     -2.601422
  N       1.003092      4.259046     -1.737108
  H       1.158120      4.495386     -0.770512
  H       2.869345      3.478943     -2.253268
  H       1.817909      3.966807     -3.602725
  H       2.642136      5.202843     -2.625608
  C      -3.823309      3.929163     -1.344856
  O      -4.094243      4.371843     -0.238674
  C      -4.851816      3.491389     -2.347368
  H      -5.842874      3.621719     -1.923448
  H      -4.766125      4.084148     -3.254711
  H      -4.700167      2.445636     -2.601666
>
47
Coordinates from ORCA-job /home/esp/scriptDevelopment/drFrankenstein/11_PCY_CHARMM/04_torsion_scanning/torsion_NH1-CT1-CG321-CG2R61/scans_PCY_conformer_21/PCY_conformer_21_backwards/orca_scan Relaxed Surface Scan Step 7 E -79.898646056590
  H       0.443923     -1.397785      2.686799
  H      -2.893635     -1.466016      1.391535
  H      -2.777357      1.444674      3.562851
  H      -2.278898      4.734699      0.310885
  H      -0.693135     -2.383304      3.602791
  H      -2.786257      3.576037      2.320131
  H       0.113111     -0.122317      0.835604
  H      -0.533029      4.895699      0.534687
  H      -2.157652     -4.246006     -1.767002
  H       0.128879      1.989008     -0.363084
  H       0.043614     -4.773470     -0.756800
  H      -1.737988      3.183410     -3.002561
  H      -3.631024     -2.588267     -0.656642
  N      -2.054921      3.311269     -2.035686
  C      -1.151139      4.038918     -1.327170
  C      -0.015961      4.438065     -2.146573
  C      -1.313942      4.250461      0.133103
  O      -0.000190      4.129579     -3.357408
  C      -1.324363      2.937812      0.890630
  C      -2.140879      2.772353      2.003194
  C      -2.146101      1.583731      2.699938
  C      -1.337451      0.521889      2.294201
  C      -0.518866      0.679352      1.183729
  C      -0.515086      1.882916      0.498282
  O      -1.436970     -0.616952      3.048043
  C      -0.605471     -1.713377      2.740818
  C      -1.012211     -2.455104      1.492770
  C      -2.247991     -2.187196      0.915547
  C      -2.663370     -2.820505     -0.242147
  C      -1.841089     -3.750339     -0.864231
  C      -0.615674     -4.045488     -0.310303
  C      -0.196137     -3.413032      0.865216
  N       1.067534     -3.791502      1.377167
  O       1.389860     -3.452292      2.516747
  O       1.815515     -4.459924      0.661954
  C       2.149016      5.574758     -2.297748
  N       0.983294      5.135927     -1.571498
  H       0.949722      5.345621     -0.587223
  H       3.050084      5.127284     -1.877400
  H       2.037685      5.259155     -3.333649
  H       2.233784      6.660761     -2.256656
  C      -3.290791      2.831869     -1.680080
  O      -3.795789      3.032848     -0.586409
  C      -3.946207      2.046837     -2.780113
  H      -4.908675      1.682128     -2.434977
  H      -4.091309      2.677689     -3.653614
  H      -3.317444      1.206135     -3.061660
>
47
Coordinates from ORCA-job /home/esp/scriptDevelopment/drFrankenstein/11_PCY_CHARMM/04_torsion_scanning/torsion_NH1-CT1-CG321-CG2R61/scans_PCY_conformer_21/PCY_conformer_21_backwards/orca_scan Relaxed Surface Scan Step 8 E -79.897991570220
  H       0.362723     -1.465384      2.678039
  H      -2.956276     -1.458217      1.348141
  H      -2.764383      1.465124      3.549342
  H      -2.080134      4.795481      0.378576
  H      -0.799202     -2.419868      3.595625
  H      -2.681934      3.606416      2.327333
  H       0.069170     -0.193698      0.816959
  H      -0.318875      4.812786      0.547471
  H      -2.273895     -4.309617     -1.758697
  H       0.177284      1.928307     -0.360420
  H      -0.099382     -4.886320     -0.718145
  H      -1.598267      3.121977     -2.959490
  H      -3.707988     -2.592204     -0.688929
  N      -1.906509      3.245514     -1.989256
  C      -1.051044      4.057454     -1.312118
  C       0.009648      4.561609     -2.173077
  C      -1.161427      4.241959      0.157424
  O       0.036407      4.215714     -3.373421
  C      -1.243388      2.922241      0.895139
  C      -2.069066      2.780023      2.004120
  C      -2.125518      1.586155      2.689330
  C      -1.358548      0.496512      2.276859
  C      -0.531257      0.630007      1.169718
  C      -0.475919      1.838812      0.495861
  O      -1.503234     -0.642850      3.023016
  C      -0.693294     -1.758700      2.728822
  C      -1.107804     -2.503235      1.485175
  C      -2.328512     -2.206506      0.890383
  C      -2.751514     -2.845791     -0.261271
  C      -1.951525     -3.809476     -0.860470
  C      -0.741092     -4.132359     -0.289461
  C      -0.314603     -3.495105      0.881077
  N       0.931049     -3.904702      1.412397
  O       1.258084     -3.547895      2.545390
  O       1.659528     -4.618256      0.720766
  C       2.004036      5.962277     -2.423584
  N       0.928365      5.396173     -1.647867
  H       0.859898      5.679102     -0.684066
  H       2.966195      5.691737     -1.988543
  H       1.936602      5.561631     -3.433533
  H       1.917525      7.048588     -2.459343
  C      -3.119465      2.722601     -1.614686
  O      -3.645648      2.966276     -0.540507
  C      -3.721498      1.840977     -2.671054
  H      -4.649078      1.417923     -2.298372
  H      -3.926710      2.422299     -3.566827
  H      -3.030504      1.042515     -2.927836
