
                                 *****************
                                 * O   R   C   A *
                                 *****************

                                            #,                                       
                                            ###                                      
                                            ####                                     
                                            #####                                    
                                            ######                                   
                                           ########,                                 
                                     ,,################,,,,,                         
                               ,,#################################,,                 
                          ,,##########################################,,             
                       ,#########################################, ''#####,          
                    ,#############################################,,   '####,        
                  ,##################################################,,,,####,       
                ,###########''''           ''''###############################       
              ,#####''   ,,,,##########,,,,          '''####'''          '####       
            ,##' ,,,,###########################,,,                        '##       
           ' ,,###''''                  '''############,,,                           
         ,,##''                                '''############,,,,        ,,,,,,###''
      ,#''                                            '''#######################'''  
     '                                                          ''''####''''         
             ,#######,   #######,   ,#######,      ##                                
            ,#'     '#,  ##    ##  ,#'     '#,    #''#        ,####,    ,#,          
            ##       ##  ##   ,#'  ##            #'  '#       #'       ,# #          
            ##       ##  #######   ##           ,######,      #####,      #          
            '#,     ,#'  ##    ##  '#,     ,#' ,#      #,     #,   #      #          
             '#######'   ##     ##  '#######'  #'      '#     '####' #    #          



                #########################################################
                #                        -***-                          #
                #          Department of theory and spectroscopy        #
                #                                                       #
                #                      Frank Neese                      #
                #                                                       #
                #     Directorship, Architecture, Infrastructure        #
                #                    SHARK, DRIVERS                     #
                #        Core code/Algorithms in most modules           #
                #                                                       #
                #        Max Planck Institute fuer Kohlenforschung      #
                #                Kaiser Wilhelm Platz 1                 #
                #                 D-45470 Muelheim/Ruhr                 #
                #                      Germany                          #
                #                                                       #
                #                  All rights reserved                  #
                #                        -***-                          #
                #########################################################


                         Program Version 6.1.0  -  RELEASE   -
                                (GIT: $679e74b$)
                          ($2025-06-10 18:02:51 +0200$)


 With contributions from (in alphabetic order):
[Max-Planck-Institut fuer Kohlenforschung]                               
  Daniel Aravena         : Magnetic Suceptibility                        
  Michael Atanasov       : Ab Initio Ligand Field Theory (pilot matlab implementation)
  Alexander A. Auer      : GIAO ZORA, VPT2 properties, NMR spectrum      
  Ute Becker             : All parallelization in ORCA, NUMFREQ, NUMCALC 
  Giovanni Bistoni       : ED, misc. LED, open-shell LED, HFLD           
  Dmytro Bykov           : pre 5.0 version of the SCF Hessian            
  Marcos Casanova-Páez   : Triplet and SCS-CIS(D). UHF-(DLPNO)-IP/EA/STEOM-CCSD. UHF-CVS-IP/STEOM-CCSD   
  Vijay G. Chilkuri      : MRCI spin determinant printing, contributions to CSF-ICE 
  Pauline Colinet        : FMM embedding                                 
  Dipayan Datta          : RHF DLPNO-CCSD density                        
  Achintya Kumar Dutta   : EOM-CC, STEOM-CC                              
  Nicolas Foglia         : Exact transition moments, OPA infrastructure, MCD improvements    
  Dmitry Ganyushin       : Spin-Orbit,Spin-Spin,Magnetic field MRCI      
  Miquel Garcia-Rates    : C-PCM and meta-GGA Hessian, CCSD/C-PCM, Gaussian charge scheme 
  Tiago L. C. Gouveia    : GS-ROHF, GS-ROCIS                             
  Yang Guo               : DLPNO-NEVPT2, F12-NEVPT2, CIM, IAO-localization        
  Andreas Hansen         : Spin unrestricted coupled pair/coupled cluster methods 
  Ingolf Harden          : AUTO-CI MPn and infrastructure                
  Benjamin Helmich-Paris : MC-RPA, TRAH-(SCF,CASSCF), AVAS, COSX integrals, SCF dyn. polar., MC-PDFT, srDFT 
  Lee Huntington         : MR-EOM, pCC                                   
  Robert Izsak           : Overlap fitted RIJCOSX, COSX-SCS-MP3, EOM     
  Riya Kayal             : Wick's Theorem for AUTO-CI, AUTO-CI UHF-CCSDT 
  Emily Kempfer          : AUTO-CI RHF CISDT and CCSDT, approximate NEVPT4
  Christian Kollmar      : KDIIS, OOCD, Brueckner-CCSD(T), CCSD density, CASPT2, CASPT2-K, improved NEVPT2 
  Axel Koslowski         : Symmetry handling                             
  Simone Kossmann        : meta-GGA functionals, TD-DFT gradient, OOMP2, (MP2 Hessian; deprecated post 5.0) 
  Lucas Lang             : DCDCAS, Hyperfine gauge corrections, ICE-SOC+SSC
  Marvin Lechner         : AUTO-CI (C++ implementation), FIC-MRCC        
  Spencer Leger          : CASSCF response                               
  Dagmar Lenk            : GEPOL surface, SMD, ORCA-2-JSON               
  Dimitrios Liakos       : Extrapolation schemes; Compound Job, Property file
  Dimitrios Manganas     : Further ROCIS development; embedding schemes. LFT, Crystal Embedding 
  Dimitrios Pantazis     : SARC Basis sets                               
  Anastasios Papadopoulos: AUTO-CI, single reference methods and gradients 
  Taras Petrenko         : pre 6.0 DFT Hessian and TD-DFT gradient,  ECA, NRVS 
  Petra Pikulova         : Analytic Raman intensities                    
  Peter Pinski           : DLPNO-MP2, DLPNO-MP2 Gradient                 
  Shashank Vittal Rao    : ES-AILFT, MagRelax                            
  Christoph Reimann      : Effective Core Potentials                     
  Marius Retegan         : Local ZFS, SOC                                
  Christoph Riplinger    : Optimizer, TS searches, QM/MM, DLPNO-CCSD(T), (RO)-DLPNO pert. Triples 
  Michael Roemelt        : Original ROCIS implementation, recursive CI coupling coefficients
  Masaaki Saitow         : Open-shell DLPNO-CCSD energy and density      
  Barbara Sandhoefer     : DKH picture change effects                    
  Yorick L. A. Schmerwitz: GMF and freeze-and-release deltaSCF, NEB S-IDPP initial path                    
  Kantharuban Sivalingam : CASSCF convergence/infrastructure, NEVPT2, NEVPT3, NEVPT4(SD), FIC-MRCI and CEPA variants
  Bernardo de Souza      : ESD, SOC TD-DFT                               
  Georgi L. Stoychev     : AutoAux, RI-MP2 NMR, DLPNO-MP2 response, X2C  
  Van Anh Tran           : RI-MP2 g-tensors                              
  Willem Van den Heuvel  : Paramagnetic NMR                              
  Zikuan Wang            : NOTCH, Electric field optimization            
  Frank Wennmohs         : Technical directorship and infrastructure     
  Hang Xu                : AUTO-CI-Response properties                   
                                                                         
[FACCTs GmbH]                                                            
  Markus Bursch, Nicolas Foglia, Miquel Garcia-Rates, Ingolf Harden, Hagen Neugebauer, Anastasios Papadopoulos, 
  Christoph Riplinger, Bernardo de Souza, Georgi L. Stoychev                                                    
                                                                 
  APM, various basis sets, CI-OPT, improved COSX, DLPNO-Multilevel,           
  DOCKER, DRACO, updates on ESD, Fragmentator, GOAT, IRC, LR-CPCM, L-BFGS, MBIS, meta-GGA TD-DFT gradient, ML-optimized integration grids, 
  MM, NACMEs, nearIR, NEB, NEB-TS, NL-DFT gradient (VV10), 2- and 3-layer-ONIOM, interface openCOSMO-RS, QMMM,   
  Crystal-QMMM, RESP, rigid body optimization, SF, symmetry and pop. for TD-DFT, various functionals, SOLVATOR                                   
                                                                         
[Other institutions]                                                     
  V. Asgeirsson          : NEB                                           
  Christoph Bannwarth    : sTDA-DFT, sTD-DFT, PBEh-3c, B97-3c, D3        
  Giovanni Bistoni       : ETS/NOCV, ADLD/ADEX, COVALED                  
  Martin Brehm           : Molecular dynamics                            
  Ronald Cardenas        : ETS/NOCV                                      
  Martina Colucci        : COVALED                                       
  Sebastian Ehlert       : rSCAN, r2SCAN, r2SCAN-3c, D4, dhf basis sets  
  Marvin Friede          : D4 for Fr, Ra, Ac-Lr                          
  Lars Goerigk           : TD-DFT with DH, B97 family of functionals     
  Stefan Grimme          : VdW corrections, initial TS optimization, DFT functionals, gCP, sTDA/sTD-DF 
  Waldemar Hujo          : DFT-NL                                        
  H. Jonsson             : NEB                                           
  Holger Kruse           : gCP                                           
  Marcel Mueller         : wB97X-3c, vDZP basis set                      
  Hagen Neugebauer       : wr2SCAN, Native XTB                           
  Gianluca Regni         : ADLD/ADEX                                     
  Tobias Risthaus        : pre 6.0 range-separated hybrid DFT and stability analysis
  Lukas Wittmann         : regularized MP2, r2SCAN double-hybrids, wr2SCAN        
                                                                         
We gratefully acknowledge several colleagues who have allowed us to      
interface, adapt or use parts of their codes:                            
  Ed Valeev, F. Pavosevic, A. Kumar             : LibInt (2-el integral package), F12 methods 
  Garnet Chan, S. Sharma, J. Yang, R. Olivares  : DMRG                   
  Ulf Ekstrom                                   : XCFun DFT Library      
  Mihaly Kallay                                 : mrcc  (arbitrary order and MRCC methods)
  Frank Weinhold                                : gennbo (NPA and NBO analysis)           
  Simon Mueller                                 : openCOSMO-RS                            
  Christopher J. Cramer and Donald G. Truhlar   : smd solvation model                     
  S Lehtola, MJT Oliveira, MAL Marques          : LibXC Library                           
  Liviu Ungur et al                             : ANISO software                          


 Your calculation uses the libint2 library for the computation of 2-el integrals
 For citations please refer to: http://libint.valeyev.net

 Your ORCA version has been built with support for libXC version: 7.0.0
 For citations please refer to: https://libxc.gitlab.io

 This ORCA versions uses:
   CBLAS   interface :  Fast vector & matrix operations
   LAPACKE interface :  Fast linear algebra routines
   SCALAPACK package :  Parallel linear algebra routines
   Shared memory     :  Shared parallel matrices
   BLAS/LAPACK       :  OpenBLAS 0.3.29  USE64BITINT DYNAMIC_ARCH NO_AFFINITY Haswell SINGLE_THREADED
        Core in use  :  Haswell
   Copyright (c) 2011-2014, The OpenBLAS Project


  ***********************************
  * Starting time: Wed Jul 16 15:48:04 2025
  * Host name:     MONSTER
  * Process ID:    442516
  * Working dir.:  /home/esp/scriptDevelopment/drFrankenstein
  ***********************************



***************************************
The coordinates will be read from file: /home/esp/scriptDevelopment/drFrankenstein/11_PCY_CHARMM/03_GOAT_conformers/PCY_conformer_30.xyz
***************************************


Your calculation utilizes the semiempirical GFN2-xTB method
Please cite in your paper:
Bannwarth, C.; Ehlert S.; Grimme, S. J. Chem. Theory Comput. 2019, 15, 1652.
   

================================================================================

================================================================================
                                        WARNINGS
                       Please study these warnings very carefully!
================================================================================


WARNING: Geometry Optimization
  ===> : Switching off AutoStart
         For restart on a previous wavefunction, please use MOREAD

WARNING: Found dipole moment calculation with XTB calculation
  ===> : Switching off dipole moment calculation


================================================================================
                                       INPUT FILE
================================================================================
NAME = /home/esp/scriptDevelopment/drFrankenstein/11_PCY_CHARMM/04_torsion_scanning/torsion_NH1-CT1-CG321-CG2R61/scans_PCY_conformer_30/PCY_conformer_30_opt/orca_opt.inp
|  1>  # --------------------------------- #
|  2>  #  Geometry Optimisation            #
|  3>  # --------------------------------- #
|  4> ! XTB2 ALPB(water) Opt
|  5> *xyzfile 0 1 /home/esp/scriptDevelopment/drFrankenstein/11_PCY_CHARMM/03_GOAT_conformers/PCY_conformer_30.xyz
|  6> 
|  7> 
|  8>                          ****END OF INPUT****
================================================================================

                       *****************************
                       * Geometry Optimization Run *
                       *****************************

Geometry optimization settings:
Update method            Update   .... BFGS
Choice of coordinates    CoordSys .... (2022) Redundant Internals
Initial Hessian          InHess   .... Almloef's Model
Max. no of cycles        MaxIter  .... 141

Convergence Tolerances:
Energy Change            TolE     ....  5.0000e-06 Eh
Max. Gradient            TolMAXG  ....  3.0000e-04 Eh/bohr
RMS Gradient             TolRMSG  ....  1.0000e-04 Eh/bohr
Max. Displacement        TolMAXD  ....  4.0000e-03 bohr
RMS Displacement         TolRMSD  ....  2.0000e-03 bohr
Strict Convergence                .... False

------------------------------------------------------------------------------
                        ORCA OPTIMIZATION COORDINATE SETUP
------------------------------------------------------------------------------

The optimization will be done in redundant internal coordinates (2022)
Making redundant internal coordinates   ...  (2022 redundants) done
Evaluating the initial hessian          ...  (Almloef) done
Evaluating the coordinates              ...  done
Calculating the B-matrix                .... done
Calculating the G-matrix                .... done
The number of degrees of freedom        ....  229

    -----------------------------------------------------------------
                    Redundant Internal Coordinates


    -----------------------------------------------------------------
         Definition                    Initial Value    Approx d2E/dq
    -----------------------------------------------------------------
      1. B(N  13,H  11)                  1.0143         0.425952   
      2. B(C  14,N  13)                  1.3490         0.650653   
      3. B(C  15,C  14)                  1.4790         0.450561   
      4. B(C  16,H   3)                  1.0865         0.364792   
      5. B(C  16,C  14)                  1.4849         0.440886   
      6. B(C  16,H   7)                  1.0898         0.360343   
      7. B(O  17,C  15)                  1.2219         1.037531   
      8. B(C  18,C  16)                  1.5178         0.390665   
      9. B(C  19,C  18)                  1.3895         0.625977   
     10. B(C  19,H   5)                  1.0790         0.374894   
     11. B(C  20,H   2)                  1.0800         0.373525   
     12. B(C  20,C  19)                  1.3823         0.642818   
     13. B(C  21,C  20)                  1.3898         0.625158   
     14. B(C  22,C  21)                  1.3911         0.622345   
     15. B(C  22,H   6)                  1.0792         0.374727   
     16. B(C  23,C  22)                  1.3794         0.649656   
     17. B(C  23,C  18)                  1.3920         0.620120   
     18. B(C  23,H   9)                  1.0795         0.374223   
     19. B(O  24,C  21)                  1.3817         0.576950   
     20. B(C  25,O  24)                  1.4267         0.488957   
     21. B(C  25,H   4)                  1.0921         0.357307   
     22. B(C  25,H   0)                  1.0927         0.356572   
     23. B(C  26,C  25)                  1.5103         0.401646   
     24. B(C  27,C  26)                  1.3898         0.625210   
     25. B(C  27,H   1)                  1.0796         0.374066   
     26. B(C  28,C  27)                  1.3832         0.640541   
     27. B(C  28,H  12)                  1.0790         0.374906   
     28. B(C  29,C  28)                  1.3876         0.630377   
     29. B(C  29,H   8)                  1.0789         0.375113   
     30. B(C  30,C  29)                  1.3756         0.658731   
     31. B(C  30,H  10)                  1.0787         0.375298   
     32. B(C  31,C  30)                  1.4005         0.601256   
     33. B(C  31,C  26)                  1.4074         0.586044   
     34. B(N  32,C  31)                  1.4136         0.513197   
     35. B(O  33,H  11)                  2.4117         0.010000   
     36. B(O  33,N  32)                  1.2462         0.850101   
     37. B(O  34,N  32)                  1.2297         0.903280   
     38. B(N  36,H  11)                  2.3461         0.010000   
     39. B(N  36,C  35)                  1.4444         0.458283   
     40. B(N  36,C  15)                  1.3610         0.622458   
     41. B(H  37,O  33)                  1.9643         0.012994   
     42. B(H  37,N  36)                  1.0166         0.422401   
     43. B(H  38,C  35)                  1.0919         0.357653   
     44. B(H  39,C  35)                  1.0909         0.358880   
     45. B(H  40,C  35)                  1.0886         0.361951   
     46. B(C  41,N  13)                  1.3891         0.561448   
     47. B(O  42,C  41)                  1.2087         1.089444   
     48. B(C  43,C  41)                  1.5057         0.408434   
     49. B(H  44,C  43)                  1.0875         0.363483   
     50. B(H  45,C  43)                  1.0859         0.365586   
     51. B(H  46,C  43)                  1.0888         0.361713   
     52. A(H  11,N  13,C  41)          114.6128         0.351744   
     53. A(C  14,N  13,C  41)          130.0491         0.424519   
     54. A(H  11,N  13,C  14)          115.3097         0.360661   
     55. A(N  13,C  14,C  15)          118.7465         0.410868   
     56. A(N  13,C  14,C  16)          123.6615         0.409291   
     57. A(C  15,C  14,C  16)          116.7631         0.386174   
     58. A(O  17,C  15,N  36)          123.7670         0.470703   
     59. A(C  14,C  15,O  17)          121.4291         0.446722   
     60. A(C  14,C  15,N  36)          114.7833         0.407657   
     61. A(H   3,C  16,H   7)          111.6501         0.291463   
     62. A(H   3,C  16,C  14)          112.7967         0.334027   
     63. A(C  14,C  16,C  18)           99.9200         0.376733   
     64. A(H   3,C  16,C  18)          111.4564         0.327411   
     65. A(H   7,C  16,C  14)          109.3412         0.333347   
     66. A(H   7,C  16,C  18)          111.1253         0.326750   
     67. A(C  16,C  18,C  23)          119.8494         0.399829   
     68. A(C  19,C  18,C  23)          119.3905         0.434831   
     69. A(C  16,C  18,C  19)          120.3519         0.400491   
     70. A(C  18,C  19,C  20)          120.2949         0.437657   
     71. A(H   5,C  19,C  18)          119.7528         0.355904   
     72. A(H   5,C  19,C  20)          119.9390         0.357512   
     73. A(H   2,C  20,C  21)          119.2358         0.355604   
     74. A(C  19,C  20,C  21)          119.9830         0.437553   
     75. A(H   2,C  20,C  19)          120.7667         0.357290   
     76. A(C  22,C  21,O  24)          120.4593         0.425985   
     77. A(C  20,C  21,O  24)          119.6326         0.426330   
     78. A(C  20,C  21,C  22)          119.8979         0.435009   
     79. A(C  21,C  22,C  23)          119.8200         0.438033   
     80. A(H   6,C  22,C  23)          120.6453         0.358129   
     81. A(H   6,C  22,C  21)          119.5133         0.355526   
     82. A(C  18,C  23,C  22)          120.5051         0.437750   
     83. A(H   9,C  23,C  22)          119.8374         0.358047   
     84. A(H   9,C  23,C  18)          119.6378         0.355229   
     85. A(C  21,O  24,C  25)          112.8644         0.405455   
     86. A(H   0,C  25,H   4)          109.6776         0.290036   
     87. A(O  24,C  25,C  26)          108.8319         0.382967   
     88. A(H   4,C  25,C  26)          109.8871         0.327788   
     89. A(H   0,C  25,C  26)          112.2689         0.327677   
     90. A(H   4,C  25,O  24)          105.1984         0.336605   
     91. A(H   0,C  25,O  24)          110.7346         0.336490   
     92. A(C  27,C  26,C  31)          117.5559         0.430341   
     93. A(C  25,C  26,C  31)          124.8016         0.397809   
     94. A(C  25,C  26,C  27)          117.1002         0.402364   
     95. A(C  26,C  27,C  28)          122.2538         0.437280   
     96. A(H   1,C  27,C  28)          119.5454         0.357162   
     97. A(H   1,C  27,C  26)          118.1965         0.355696   
     98. A(C  27,C  28,C  29)          119.7276         0.437929   
     99. A(H  12,C  28,C  29)          120.2839         0.356329   
    100. A(H  12,C  28,C  27)          119.9863         0.357299   
    101. A(C  28,C  29,C  30)          119.4407         0.440148   
    102. A(H   8,C  29,C  30)          120.0114         0.359038   
    103. A(H   8,C  29,C  28)          120.5476         0.356363   
    104. A(C  29,C  30,C  31)          121.0613         0.436409   
    105. A(H  10,C  30,C  31)          118.2403         0.353545   
    106. A(H  10,C  30,C  29)          120.6925         0.359068   
    107. A(C  30,C  31,N  32)          116.0289         0.414621   
    108. A(C  26,C  31,N  32)          123.9968         0.412738   
    109. A(C  26,C  31,C  30)          119.9524         0.427336   
    110. A(O  33,N  32,O  34)          120.9872         0.479320   
    111. A(C  31,N  32,O  34)          121.1142         0.440133   
    112. A(C  31,N  32,O  33)          117.8689         0.435344   
    113. A(N  36,C  35,H  38)          110.6482         0.333054   
    114. A(H  39,C  35,H  40)          109.7395         0.290919   
    115. A(H  38,C  35,H  40)          109.5150         0.290762   
    116. A(N  36,C  35,H  40)          108.2061         0.333715   
    117. A(H  38,C  35,H  39)          109.1475         0.290373   
    118. A(N  36,C  35,H  39)          109.5702         0.333244   
    119. A(C  35,N  36,H  37)          114.9482         0.339468   
    120. A(C  15,N  36,H  37)          117.8617         0.357442   
    121. A(C  15,N  36,C  35)          120.3411         0.406253   
    122. A(O  42,C  41,C  43)          124.7637         0.442750   
    123. A(N  13,C  41,C  43)          111.2555         0.393463   
    124. A(N  13,C  41,O  42)          123.9760         0.466038   
    125. A(H  45,C  43,H  46)          108.9985         0.291736   
    126. A(H  44,C  43,H  46)          108.7913         0.291472   
    127. A(C  41,C  43,H  46)          110.0138         0.329362   
    128. A(H  44,C  43,H  45)          109.9691         0.291960   
    129. A(C  41,C  43,H  45)          109.5353         0.329942   
    130. A(C  41,C  43,H  44)          109.5180         0.329628   
    131. D(C  15,C  14,N  13,C  41)    179.2276         0.034555   
    132. D(C  16,C  14,N  13,C  41)     10.0038         0.034555   
    133. D(C  15,C  14,N  13,H  11)      1.2971         0.034555   
    134. D(C  16,C  14,N  13,H  11)   -167.9267         0.034555   
    135. D(O  17,C  15,C  14,C  16)    -37.9525         0.013837   
    136. D(N  36,C  15,C  14,C  16)    143.6398         0.013837   
    137. D(O  17,C  15,C  14,N  13)    152.0851         0.013837   
    138. D(N  36,C  15,C  14,N  13)    -26.3226         0.013837   
    139. D(C  18,C  16,C  14,N  13)     86.6234         0.014342   
    140. D(H   3,C  16,C  14,N  13)    -31.8215         0.014342   
    141. D(H   3,C  16,C  14,C  15)    158.7579         0.014342   
    142. D(H   7,C  16,C  14,C  15)     33.8918         0.014342   
    143. D(H   7,C  16,C  14,N  13)   -156.6876         0.014342   
    144. D(C  19,C  18,C  16,H   3)     25.3185         0.011353   
    145. D(C  19,C  18,C  16,H   7)    150.5463         0.011353   
    146. D(C  19,C  18,C  16,C  14)    -94.1120         0.011353   
    147. D(C  23,C  18,C  16,H   7)    -36.8301         0.011353   
    148. D(C  23,C  18,C  16,H   3)   -162.0579         0.011353   
    149. D(C  20,C  19,C  18,C  16)    170.2755         0.027147   
    150. D(C  20,C  19,C  18,C  23)     -2.3817         0.027147   
    151. D(H   5,C  19,C  18,C  16)     -8.4011         0.027147   
    152. D(H   5,C  19,C  18,C  23)    178.9416         0.027147   
    153. D(C  21,C  20,C  19,C  18)     -0.3044         0.028727   
    154. D(C  21,C  20,C  19,H   5)    178.3698         0.028727   
    155. D(H   2,C  20,C  19,C  18)   -178.9085         0.028727   
    156. D(H   2,C  20,C  19,H   5)     -0.2343         0.028727   
    157. D(O  24,C  21,C  20,C  19)   -175.9025         0.027071   
    158. D(O  24,C  21,C  20,H   2)      2.7230         0.027071   
    159. D(C  22,C  21,C  20,C  19)      2.9442         0.027071   
    160. D(C  22,C  21,C  20,H   2)   -178.4304         0.027071   
    161. D(H   6,C  22,C  21,C  20)    178.7985         0.026813   
    162. D(C  23,C  22,C  21,O  24)    175.9630         0.026813   
    163. D(C  23,C  22,C  21,C  20)     -2.8740         0.026813   
    164. D(H   6,C  22,C  21,O  24)     -2.3645         0.026813   
    165. D(C  18,C  23,C  22,C  21)      0.1693         0.029384   
    166. D(C  18,C  23,C  22,H   6)    178.4775         0.029384   
    167. D(H   9,C  23,C  22,C  21)   -178.2056         0.029384   
    168. D(H   9,C  23,C  22,H   6)      0.1026         0.029384   
    169. D(C  22,C  23,C  18,C  19)      2.4528         0.026610   
    170. D(C  22,C  23,C  18,C  16)   -170.2419         0.026610   
    171. D(H   9,C  23,C  18,C  19)   -179.1691         0.026610   
    172. D(H   9,C  23,C  18,C  16)      8.1362         0.026610   
    173. D(C  25,O  24,C  21,C  22)    -76.3667         0.024195   
    174. D(C  25,O  24,C  21,C  20)    102.4734         0.024195   
    175. D(C  26,C  25,O  24,C  21)    -73.9905         0.018877   
    176. D(H   4,C  25,O  24,C  21)    168.2939         0.018877   
    177. D(H   0,C  25,O  24,C  21)     49.8734         0.018877   
    178. D(C  31,C  26,C  25,H   4)   -156.6275         0.011968   
    179. D(C  31,C  26,C  25,H   0)    -34.2787         0.011968   
    180. D(C  27,C  26,C  25,O  24)    -82.6526         0.011968   
    181. D(C  27,C  26,C  25,H   4)     32.0512         0.011968   
    182. D(C  27,C  26,C  25,H   0)    154.4000         0.011968   
    183. D(C  28,C  27,C  26,C  31)      0.4707         0.027076   
    184. D(C  28,C  27,C  26,C  25)    172.4369         0.027076   
    185. D(H   1,C  27,C  26,C  31)   -178.7700         0.027076   
    186. D(H   1,C  27,C  26,C  25)     -6.8038         0.027076   
    187. D(C  29,C  28,C  27,C  26)     -1.0165         0.028510   
    188. D(C  29,C  28,C  27,H   1)    178.2142         0.028510   
    189. D(H  12,C  28,C  27,C  26)    179.5234         0.028510   
    190. D(H  12,C  28,C  27,H   1)     -1.2459         0.028510   
    191. D(C  30,C  29,C  28,H  12)   -179.8172         0.027554   
    192. D(H   8,C  29,C  28,C  27)   -179.4698         0.027554   
    193. D(H   8,C  29,C  28,H  12)     -0.0113         0.027554   
    194. D(C  30,C  29,C  28,C  27)      0.7243         0.027554   
    195. D(C  31,C  30,C  29,C  28)      0.0779         0.030271   
    196. D(C  31,C  30,C  29,H   8)   -179.7290         0.030271   
    197. D(H  10,C  30,C  29,C  28)    179.1817         0.030271   
    198. D(H  10,C  30,C  29,H   8)     -0.6253         0.030271   
    199. D(N  32,C  31,C  30,C  29)    177.7456         0.024927   
    200. D(N  32,C  31,C  30,H  10)     -1.3795         0.024927   
    201. D(C  26,C  31,C  30,C  29)     -0.6179         0.024927   
    202. D(C  26,C  31,C  30,H  10)   -179.7431         0.024927   
    203. D(N  32,C  31,C  26,C  27)   -177.8846         0.023619   
    204. D(N  32,C  31,C  26,C  25)     10.8301         0.023619   
    205. D(C  30,C  31,C  26,C  27)      0.3417         0.023619   
    206. D(C  30,C  31,C  26,C  25)   -170.9436         0.023619   
    207. D(O  34,N  32,C  31,C  30)   -160.5520         0.020859   
    208. D(O  34,N  32,C  31,C  26)     17.7377         0.020859   
    209. D(O  33,N  32,C  31,C  30)     17.4841         0.020859   
    210. D(O  33,N  32,C  31,C  26)   -164.2261         0.020859   
    211. D(H  37,N  36,C  35,H  40)   -166.8653         0.019225   
    212. D(H  37,N  36,C  35,H  39)     73.5134         0.019225   
    213. D(H  37,N  36,C  35,H  38)    -46.8825         0.019225   
    214. D(C  15,N  36,C  35,H  40)    -16.4614         0.019225   
    215. D(C  15,N  36,C  35,H  39)   -136.0827         0.019225   
    216. D(C  15,N  36,C  35,H  38)    103.5213         0.019225   
    217. D(H  37,N  36,C  15,O  17)    157.7864         0.034139   
    218. D(H  37,N  36,C  15,C  14)    -23.8479         0.034139   
    219. D(C  35,N  36,C  15,O  17)      8.2184         0.034139   
    220. D(C  35,N  36,C  15,C  14)   -173.4159         0.034139   
    221. D(C  43,C  41,N  13,C  14)   -177.4756         0.025182   
    222. D(C  43,C  41,N  13,H  11)      0.4666         0.025182   
    223. D(O  42,C  41,N  13,C  14)      3.2893         0.025182   
    224. D(O  42,C  41,N  13,H  11)   -178.7685         0.025182   
    225. D(H  46,C  43,C  41,N  13)    -67.5893         0.012359   
    226. D(H  45,C  43,C  41,O  42)     -8.1543         0.012359   
    227. D(H  45,C  43,C  41,N  13)    172.6178         0.012359   
    228. D(H  44,C  43,C  41,O  42)   -128.8340         0.012359   
    229. D(H  44,C  43,C  41,N  13)     51.9381         0.012359   
    -----------------------------------------------------------------

Number of atoms                         .... 47
Number of degrees of freedom            .... 229


         *************************************************************
         *                GEOMETRY OPTIMIZATION CYCLE   1            *
         *************************************************************
---------------------------------
CARTESIAN COORDINATES (ANGSTROEM)
---------------------------------
  H    -2.966750   -1.320790    1.432890
  H    -0.641170   -2.009010    4.120660
  H     1.022950   -1.103000    0.609980
  H     0.833670    1.305570   -3.470680
  H    -2.397590   -2.470600    2.675600
  H     1.491110    0.367180   -1.323030
  H    -2.809390   -2.029880   -1.018310
  H    -0.699000    0.778410   -4.254800
  H     1.128920    1.866050    4.391840
  H    -2.345060   -0.568260   -2.950160
  H    -0.201510    2.582010    2.443010
  H    -1.101680    3.660940   -1.350640
  H     0.879080   -0.447180    5.250490
  N    -0.436470    3.068730   -1.835980
  C    -0.974430    2.191860   -2.708560
  C    -2.440920    2.188240   -2.900440
  C    -0.216980    1.071900   -3.322480
  O    -2.944590    1.833110   -3.955590
  C    -0.404430    0.011880   -2.252430
  C     0.551370   -0.159180   -1.258520
  C     0.292400   -0.978320   -0.175660
  C    -0.930980   -1.630090   -0.074670
  C    -1.869260   -1.505470   -1.094070
  C    -1.605210   -0.687860   -2.173180
  O    -1.215190   -2.378950    1.051160
  C    -2.089660   -1.707970    1.957060
  C    -1.317770   -0.618670    2.663140
  C    -0.555460   -0.993950    3.762980
  C     0.310260   -0.119120    4.394260
  C     0.451110    1.175370    3.914850
  C    -0.285390    1.576440    2.824440
  C    -1.175800    0.699900    2.191890
  N    -1.914040    1.237410    1.112890
  O    -1.503540    2.294060    0.595260
  O    -2.948470    0.700530    0.720740
  C    -4.598870    2.553770   -1.835420
  N    -3.156960    2.638000   -1.833960
  H    -2.725240    2.584350   -0.915190
  H    -4.937060    1.729910   -1.203730
  H    -5.019860    3.487930   -1.460950
  H    -4.928740    2.386140   -2.859210
  C     0.888490    3.263940   -1.467230
  O     1.819850    2.665740   -1.952580
  C     1.008920    4.324250   -0.404960
  H     0.334900    4.093610    0.416660
  H     2.032690    4.363030   -0.045050
  H     0.740780    5.296010   -0.816340

----------------------------
CARTESIAN COORDINATES (A.U.)
----------------------------
  NO LB    ZA    FRAG    MASS        X           Y           Z
   0 H   1.0000    0     1.008   -5.606345   -2.495931    2.707770
   1 H   1.0000    0     1.008   -1.211636   -3.796479    7.786919
   2 H   1.0000    0     1.008    1.933095   -2.084368    1.152695
   3 H   1.0000    0     1.008    1.575408    2.467170   -6.558635
   4 H   1.0000    0     1.008   -4.530788   -4.668757    5.056151
   5 H   1.0000    0     1.008    2.817790    0.693870   -2.500164
   6 H   1.0000    0     1.008   -5.308978   -3.835917   -1.924327
   7 H   1.0000    0     1.008   -1.320919    1.470982   -8.040407
   8 H   1.0000    0     1.008    2.133350    3.526323    8.299375
   9 H   1.0000    0     1.008   -4.431521   -1.073856   -5.574994
  10 H   1.0000    0     1.008   -0.380799    4.879292    4.616620
  11 H   1.0000    0     1.008   -2.081873    6.918174   -2.552340
  12 H   1.0000    0     1.008    1.661220   -0.845048    9.921988
  13 N   7.0000    0    14.007   -0.824809    5.799059   -3.469499
  14 C   6.0000    0    12.011   -1.841406    4.142015   -5.118437
  15 C   6.0000    0    12.011   -4.612670    4.135174   -5.481037
  16 C   6.0000    0    12.011   -0.410033    2.025597   -6.278577
  17 O   8.0000    0    15.999   -5.564469    3.464076   -7.474982
  18 C   6.0000    0    12.011   -0.764262    0.022450   -4.256476
  19 C   6.0000    0    12.011    1.041938   -0.300807   -2.378258
  20 C   6.0000    0    12.011    0.552556   -1.848757   -0.331949
  21 C   6.0000    0    12.011   -1.759297   -3.080424   -0.141106
  22 C   6.0000    0    12.011   -3.532389   -2.844926   -2.067493
  23 C   6.0000    0    12.011   -3.033407   -1.299867   -4.106715
  24 O   8.0000    0    15.999   -2.296376   -4.495564    1.986405
  25 C   6.0000    0    12.011   -3.948885   -3.227596    3.698307
  26 C   6.0000    0    12.011   -2.490224   -1.169117    5.032605
  27 C   6.0000    0    12.011   -1.049667   -1.878293    7.111002
  28 C   6.0000    0    12.011    0.586306   -0.225104    8.303948
  29 C   6.0000    0    12.011    0.852474    2.221127    7.397994
  30 C   6.0000    0    12.011   -0.539309    2.979040    5.337418
  31 C   6.0000    0    12.011   -2.221940    1.322619    4.142072
  32 N   7.0000    0    14.007   -3.617011    2.338366    2.103057
  33 O   8.0000    0    15.999   -2.841279    4.335145    1.124878
  34 O   8.0000    0    15.999   -5.571801    1.323810    1.362001
  35 C   6.0000    0    12.011   -8.690605    4.825926   -3.468441
  36 N   7.0000    0    14.007   -5.965790    4.985098   -3.465682
  37 H   1.0000    0     1.008   -5.149957    4.883714   -1.729458
  38 H   1.0000    0     1.008   -9.329691    3.269056   -2.274720
  39 H   1.0000    0     1.008   -9.486161    6.591232   -2.760795
  40 H   1.0000    0     1.008   -9.313969    4.509151   -5.403124
  41 C   6.0000    0    12.011    1.679003    6.167953   -2.772663
  42 O   8.0000    0    15.999    3.439018    5.037519   -3.689841
  43 C   6.0000    0    12.011    1.906582    8.171648   -0.765263
  44 H   1.0000    0     1.008    0.632869    7.735802    0.787373
  45 H   1.0000    0     1.008    3.841227    8.244932   -0.085132
  46 H   1.0000    0     1.008    1.399871   10.008009   -1.542659

      -----------------------------------------------------------      
     |                   =====================                   |     
     |                           x T B                           |     
     |                   =====================                   |     
     |                         S. Grimme                         |     
     |          Mulliken Center for Theoretical Chemistry        |     
     |                    University of Bonn                     |     
      -----------------------------------------------------------      

   * xtb version 6.7.1 (edcfbbe) compiled by 'albert@albert-system' on 2024-07-22

   xtb is free software: you can redistribute it and/or modify it under
   the terms of the GNU Lesser General Public License as published by
   the Free Software Foundation, either version 3 of the License, or
   (at your option) any later version.
   
   xtb is distributed in the hope that it will be useful,
   but WITHOUT ANY WARRANTY; without even the implied warranty of
   MERCHANTABILITY or FITNESS FOR A PARTICULAR PURPOSE.  See the
   GNU Lesser General Public License for more details.
   
   Cite this work as:
   * C. Bannwarth, E. Caldeweyher, S. Ehlert, A. Hansen, P. Pracht,
     J. Seibert, S. Spicher, S. Grimme, WIREs Comput. Mol. Sci., 2020, 11,
     e01493. DOI: 10.1002/wcms.1493
   
   for GFN2-xTB:
   * C. Bannwarth, S. Ehlert and S. Grimme., J. Chem. Theory Comput., 2019,
     15, 1652-1671. DOI: 10.1021/acs.jctc.8b01176
   for GFN1-xTB:
   * S. Grimme, C. Bannwarth, P. Shushkov, J. Chem. Theory Comput., 2017,
     13, 1989-2009. DOI: 10.1021/acs.jctc.7b00118
   for GFN0-xTB:
   * P. Pracht, E. Caldeweyher, S. Ehlert, S. Grimme, ChemRxiv, 2019, preprint.
     DOI: 10.26434/chemrxiv.8326202.v1
   for GFN-FF:
   * S. Spicher and S. Grimme, Angew. Chem. Int. Ed., 2020, 59, 15665-15673.
     DOI: 10.1002/anie.202004239
   
   for ALPB and GBSA implicit solvation:
   * S. Ehlert, M. Stahn, S. Spicher, S. Grimme, J. Chem. Theory Comput.,
     2021, 17, 4250-4261. DOI: 10.1021/acs.jctc.1c00471
   
   for ddCOSMO and CPCM-X implicit solvation:
   * M. Stahn, S. Ehlert, S. Grimme, J. Phys. Chem. A,
     2023, XX, XXXX-XXXX. DOI: 10.1021/acs.jpca.3c04382
   
   for DFT-D4:
   * E. Caldeweyher, C. Bannwarth and S. Grimme, J. Chem. Phys., 2017,
     147, 034112. DOI: 10.1063/1.4993215
   * E. Caldeweyher, S. Ehlert, A. Hansen, H. Neugebauer, S. Spicher,
     C. Bannwarth and S. Grimme, J. Chem. Phys., 2019, 150, 154122.
     DOI: 10.1063/1.5090222
   * E. Caldeweyher, J.-M. Mewes, S. Ehlert and S. Grimme, Phys. Chem. Chem. Phys.
     2020, 22, 8499-8512. DOI: 10.1039/D0CP00502A
   
   for sTDA-xTB:
   * S. Grimme and C. Bannwarth, J. Chem. Phys., 2016, 145, 054103.
     DOI: 10.1063/1.4959605
   
   in the mass-spec context:
   * V. Asgeirsson, C. Bauer and S. Grimme, Chem. Sci., 2017, 8, 4879.
     DOI: 10.1039/c7sc00601b
   * J. Koopman and S. Grimme, ACS Omega 2019, 4, 12, 15120-15133.
     DOI: 10.1021/acsomega.9b02011
   
   for metadynamics refer to:
   * S. Grimme, J. Chem. Theory Comput., 2019, 155, 2847-2862
     DOI: 10.1021/acs.jctc.9b00143
   
   for SPH calculations refer to:
   * S. Spicher and S. Grimme, J. Chem. Theory Comput., 2021, 17, 1701-1714
     DOI: 10.1021/acs.jctc.0c01306
   
   for ONIOM refer to:
   * C. Plett, A. Katbashev, S. Ehlert, S. Grimme, M. Bursch,
     Phys. Chem. Chem. Phys., 2023, 25, 17860-17868. DOI: 10.1039/D3CP02178E
   
   for DIPRO refer to:
   * J. Kohn, N. Gildemeister, S. Grimme, D. Fazzi, A. Hansen,
     J. Chem. Phys., 2023, just accepted.
   
   for PTB refer to:
   * S. Grimme, M. Mueller, A. Hansen, J. Chem. Phys., 2023, 158, 124111.
     DOI: 10.1063/5.0137838
   
   with help from (in alphabetical order)
   P. Atkinson, C. Bannwarth, F. Bohle, G. Brandenburg, E. Caldeweyher
   M. Checinski, S. Dohm, S. Ehlert, S. Ehrlich, I. Gerasimov, C. Hölzer
   A. Katbashev, J. Kohn, J. Koopman, C. Lavigne, S. Lehtola, F. März, M. Müller,
   F. Musil, H. Neugebauer, J. Pisarek, C. Plett, P. Pracht, F. Pultar,
   J. Seibert, P. Shushkov, S. Spicher, M. Stahn, M. Steiner, T. Strunk,
   J. Stückrath, T. Rose, and J. Unsleber
   
 * started run on 2025/07/16 at 15:48:04.133     
   ID    Z sym.   atoms
    1    1 H      1-13, 38-41, 45-47
    2    7 N      14, 33, 37
    3    6 C      15-17, 19-24, 26-32, 36, 42, 44
    4    8 O      18, 25, 34, 35, 43

           -------------------------------------------------
          |                Calculation Setup                |
           -------------------------------------------------

          program call               : /home/esp/bin/orca_6_1_0/otool_xtb /home/esp/scriptDevelopment/drFrankenstein/11_PCY_CHARMM/04_torsion_scanning/torsion_NH1-CT1-CG321-CG2R61/scans_PCY_conformer_30/PCY_conformer_30_opt/orca_opt_XTB.xyz --grad -c 0 -u 0 -P 1 --namespace /home/esp/scriptDevelopment/drFrankenstein/11_PCY_CHARMM/04_torsion_scanning/torsion_NH1-CT1-CG321-CG2R61/scans_PCY_conformer_30/PCY_conformer_30_opt/orca_opt --input /home/esp/scriptDevelopment/drFrankenstein/11_PCY_CHARMM/04_torsion_scanning/torsion_NH1-CT1-CG321-CG2R61/scans_PCY_conformer_30/PCY_conformer_30_opt/orca_opt_XTB.input.tmp --alpb WATER --acc 0.200000
          calculation namespace      : /home/esp/scriptDevelopment/drFrankenstein/11_PCY_CHARMM/04_torsion_scanning/torsion_NH1-CT1-CG321-CG2R61/scans_PCY_conformer_30/PCY_conformer_30_opt/orca_opt
          coordinate file            : /home/esp/scriptDevelopment/drFrankenstein/11_PCY_CHARMM/04_torsion_scanning/torsion_NH1-CT1-CG321-CG2R61/scans_PCY_conformer_30/PCY_conformer_30_opt/orca_opt_XTB.xyz
          omp threads                :                     1


           -------------------------------------------------
          |                 G F N 2 - x T B                 |
           -------------------------------------------------

        Reference                      10.1021/acs.jctc.8b01176
      * Hamiltonian:
        H0-scaling (s, p, d)           1.850000    2.230000    2.230000
        zeta-weighting                 0.500000
      * Dispersion:
        s8                             2.700000
        a1                             0.520000
        a2                             5.000000
        s9                             5.000000
      * Repulsion:
        kExp                           1.500000    1.000000
        rExp                           1.000000
      * Coulomb:
        alpha                          2.000000
        third order                    shell-resolved
        anisotropic                    true
        a3                             3.000000
        a5                             4.000000
        cn-shift                       1.200000
        cn-exp                         4.000000
        max-rad                        5.000000

      * Solvation model:               ALPB
        Solvent                        WATER
        Parameter file                 internal GFN2-xTB/ALPB
        Dielectric constant                8.0200E+01
        Reference state                gsolv [1 M gas/solution]
        Free energy shift                  1.0808E-03 Eh       6.7819E-01 kcal/mol
        Temperature                        2.9815E+02 K
        Density                            1.0000E+00 kg/L
        Solvent mass                       1.8000E+01 g/mol
        Interaction kernel             P16
        Born radius scaling (c1)           1.4744E+00
        Born radii integrator          GBOBC
        Born offset                        0.0000E+00 a0       0.0000E+00 AA
        H-bond correction              true
        Ion screening                  false
        Surface tension                    1.0000E-05 Eh       1.5569E+01 dyn/cm
        Grid points                               230 per atom

          ...................................................
          :                      SETUP                      :
          :.................................................:
          :  # basis functions                 128          :
          :  # atomic orbitals                 128          :
          :  # shells                           74          :
          :  # electrons                       141          :
          :  max. iterations                   250          :
          :  Hamiltonian                  GFN2-xTB          :
          :  restarted?                      false          :
          :  GBSA solvation                   true          :
          :  PC potential                    false          :
          :  electronic temp.          300.0000000     K    :
          :  accuracy                    0.2000000          :
          :  -> integral cutoff          0.3198970E+02      :
          :  -> integral neglect         0.2000000E-08      :
          :  -> SCF convergence          0.2000000E-06 Eh   :
          :  -> wf. convergence          0.2000000E-04 e    :
          :  Broyden damping             0.4000000          :
          :  net charge                          0          :
          :  unpaired electrons                  0          :
          ...................................................

 iter      E             dE          RMSdq      gap      omega  full diag
   1    -80.7263577 -0.807264E+02  0.471E+00    0.68       0.0  T
   2    -80.8434194 -0.117062E+00  0.287E+00    0.35       1.0  T
   3    -80.8449362 -0.151680E-02  0.184E+00    1.84       1.0  T
   4    -80.9325814 -0.876452E-01  0.767E-01    0.28       1.0  T
   5    -80.8795814  0.530000E-01  0.107E+00    0.30       1.0  T
   6    -80.9305365 -0.509551E-01  0.471E-01    0.33       1.0  T
   7    -80.9388876 -0.835104E-02  0.231E-01    0.16       1.0  T
   8    -80.9316357  0.725185E-02  0.412E-01    0.10       1.0  T
   9    -80.9401514 -0.851565E-02  0.167E-01    0.14       1.0  T
  10    -80.9415379 -0.138651E-02  0.592E-02    0.12       1.0  T
  11    -80.9417377 -0.199771E-03  0.473E-03    0.11       3.1  T
  12    -80.9417336  0.407004E-05  0.931E-03    0.11       1.6  T
  13    -80.9417377 -0.410701E-05  0.369E-03    0.11       4.0  T
  14    -80.9417384 -0.716083E-06  0.103E-03    0.11      14.2  T
  15    -80.9417384  0.522151E-07  0.134E-03    0.11      10.9  T
  16    -80.9417385 -0.106123E-06  0.159E-04    0.11      92.0  T
  17    -80.9417385 -0.139103E-08  0.325E-05    0.11     448.4  T

   *** convergence criteria satisfied after 17 iterations ***

         #    Occupation            Energy/Eh            Energy/eV
      -------------------------------------------------------------
         1        2.0000           -0.7654458             -20.8288
       ...           ...                  ...                  ...
        65        2.0000           -0.4256055             -11.5813
        66        2.0000           -0.4173870             -11.3577
        67        2.0000           -0.4139454             -11.2640
        68        2.0000           -0.4114162             -11.1952
        69        2.0000           -0.4035551             -10.9813
        70        2.0000           -0.3991948             -10.8626
        71        0.9010           -0.3309452              -9.0055 (HOMO)
        72        0.0990           -0.3267496              -8.8913 (LUMO)
        73                         -0.2498914              -6.7999
        74                         -0.2367124              -6.4413
        75                         -0.2351908              -6.3999
        76                         -0.2322566              -6.3200
       ...                                ...                  ...
       128                          0.6567889              17.8721
      -------------------------------------------------------------
                  HL-Gap            0.0041956 Eh            0.1142 eV
             Fermi-level           -0.3469587 Eh           -9.4412 eV

 SCC (total)                   0 d,  0 h,  0 min,  0.109 sec
 SCC setup                      ...        0 min,  0.002 sec (  1.570%)
 Dispersion                     ...        0 min,  0.001 sec (  0.842%)
 classical contributions        ...        0 min,  0.000 sec (  0.102%)
 integral evaluation            ...        0 min,  0.006 sec (  5.800%)
 iterations                     ...        0 min,  0.076 sec ( 69.400%)
 molecular gradient             ...        0 min,  0.024 sec ( 21.631%)
 printout                       ...        0 min,  0.001 sec (  0.625%)

         :::::::::::::::::::::::::::::::::::::::::::::::::::::
         ::                     SUMMARY                     ::
         :::::::::::::::::::::::::::::::::::::::::::::::::::::
         :: total energy             -79.895669235954 Eh    ::
         :: total w/o Gsasa/hb       -79.892580028639 Eh    ::
         :: gradient norm              0.037748948617 Eh/a0 ::
         :: HOMO-LUMO gap              0.114167815320 eV    ::
         ::.................................................::
         :: SCC energy               -80.939386377163 Eh    ::
         :: -> isotropic ES            0.179815617668 Eh    ::
         :: -> anisotropic ES         -0.005372857974 Eh    ::
         :: -> anisotropic XC          0.021046584870 Eh    ::
         :: -> dispersion             -0.059443750194 Eh    ::
         :: -> Gsolv                  -0.029923170640 Eh    ::
         ::    -> Gelec               -0.026833963324 Eh    ::
         ::    -> Gsasa                0.001322759756 Eh    ::
         ::    -> Ghb                 -0.005492726770 Eh    ::
         ::    -> Gshift               0.001080759698 Eh    ::
         :: repulsion energy           1.043717141209 Eh    ::
         :: add. restraining           0.000000000000 Eh    ::
         :: total charge              -0.000000000000 e     ::
         :::::::::::::::::::::::::::::::::::::::::::::::::::::


Property printout bound to 'properties.out'

           -------------------------------------------------
          | TOTAL ENERGY              -79.895669235954 Eh   |
          | GRADIENT NORM               0.037748948617 Eh/α |
          | HOMO-LUMO GAP               0.114167815320 eV   |
           -------------------------------------------------

------------------------------------------------------------------------
 * finished run on 2025/07/16 at 15:48:04.286     
------------------------------------------------------------------------
 total:
 * wall-time:     0 d,  0 h,  0 min,  0.153 sec
 *  cpu-time:     0 d,  0 h,  0 min,  0.081 sec
 * ratio c/w:     0.531 speedup
 SCF:
 * wall-time:     0 d,  0 h,  0 min,  0.110 sec
 *  cpu-time:     0 d,  0 h,  0 min,  0.069 sec
 * ratio c/w:     0.627 speedup


-------------------------   --------------------
FINAL SINGLE POINT ENERGY       -79.895669235950
-------------------------   --------------------


-------------
DIPOLE MOMENT
-------------
                                X             Y             Z
Total Dipole Moment    :      0.66600       1.49300       3.06400
                        -----------------------------------------
Magnitude (a.u.)       :      3.47285
Magnitude (Debye)      :      8.82729


------------------
CARTESIAN GRADIENT
------------------

   1   H   :    0.000035141    0.000428285    0.000063482
   2   H   :    0.000125472   -0.000378115    0.000345337
   3   H   :    0.000348455    0.000028102    0.000231603
   4   H   :    0.000105834   -0.000010718   -0.000046548
   5   H   :   -0.000312998   -0.000046664    0.000709358
   6   H   :    0.000104677    0.000051926   -0.000064087
   7   H   :    0.000028019    0.000048254   -0.000032228
   8   H   :   -0.000288364    0.000158786   -0.000074084
   9   H   :    0.000554081    0.000407885    0.000471096
  10   H   :    0.000171958    0.000067432    0.000055009
  11   H   :    0.000229037    0.000298959   -0.000190227
  12   H   :    0.000062436   -0.001670302   -0.000509482
  13   H   :    0.000463572   -0.000083243    0.000558022
  14   N   :    0.000796980    0.002584223    0.002715015
  15   C   :   -0.000415911   -0.002162360   -0.001983647
  16   C   :   -0.006890355   -0.006067646   -0.016720713
  17   C   :    0.000250304    0.000392593    0.000426382
  18   O   :    0.006867406    0.004593498    0.012658940
  19   C   :   -0.000259584   -0.000045851    0.000443630
  20   C   :    0.000193703    0.000305432    0.000067630
  21   C   :   -0.000553665    0.000081897   -0.000474974
  22   C   :   -0.000848110   -0.000821744    0.001575757
  23   C   :    0.000371772    0.000381166    0.000082571
  24   C   :   -0.000616208    0.000013627   -0.000173266
  25   O   :   -0.000984956    0.002543952    0.001413237
  26   C   :    0.001890249   -0.001637451   -0.003782133
  27   C   :   -0.000032251    0.000176563   -0.000215406
  28   C   :    0.000369215    0.001156217   -0.000220807
  29   C   :   -0.000625743   -0.000189425   -0.000757939
  30   C   :   -0.000765753   -0.000626985   -0.000552494
  31   C   :   -0.000575987   -0.001195906    0.000087286
  32   C   :    0.001038874   -0.000698388    0.001598880
  33   N   :   -0.011005190    0.000148290   -0.010590294
  34   O   :    0.000422818   -0.001984974    0.002902128
  35   O   :    0.009961026    0.003765786    0.005692493
  36   C   :    0.001749873   -0.001287210   -0.000472366
  37   N   :   -0.000905793    0.001939246    0.004625702
  38   H   :   -0.000664955   -0.001078172    0.000126499
  39   H   :   -0.000256727    0.000005248    0.000043945
  40   H   :   -0.000670891    0.000856877    0.000306756
  41   H   :    0.000328258    0.000077794   -0.000092638
  42   C   :    0.008170972   -0.009032905   -0.007761959
  43   O   :   -0.007891550    0.005700176    0.004528859
  44   C   :   -0.000431706    0.001441100    0.001923222
  45   H   :    0.000175283    0.000035456    0.000789770
  46   H   :    0.000204284    0.000239032    0.000316060
  47   H   :   -0.000023003    0.001090255   -0.000043377

Difference to translation invariance:
           :   -0.0000000000   -0.0000000000   -0.0000000000

Difference to rotation invariance:
           :    0.0000914463    0.0001671175    0.0001190241

Norm of the Cartesian gradient     ...    0.0377489486
RMS gradient                       ...    0.0031790350
MAX gradient                       ...    0.0167207127
------------------------------------------------------------------------------
                         ORCA GEOMETRY RELAXATION STEP
------------------------------------------------------------------------------

Reading the OPT-File                    .... done
Getting information on internals        .... done
Copying old internal coords+grads       .... done
Making the new internal coordinates     .... (2022 redundants) done
Validating the new internal coordinates .... (2022 redundants) done
Calculating the B-matrix                .... done
Calculating the G,G- and P matrices     .... done
Transforming gradient to internals      .... done
Projecting the internal gradient        .... done
Number of atoms                         ....  47
Number of internal coordinates          .... 229
Current Energy                          ....   -79.895669236 Eh
Current gradient norm                   ....     0.037748949 Eh/bohr
Maximum allowed component of the step   ....  0.300
Current trust radius                    ....  0.300
Evaluating the initial hessian          ....  (Almloef) done
Projecting the Hessian                  .... done
Forming the augmented Hessian           .... done
Diagonalizing the augmented Hessian     .... done
Last element of RFO vector              ....  0.966061426
Lowest eigenvalues of augmented Hessian:
 -0.002210588  0.010430500  0.012092635  0.012362184  0.012729777
Length of the computed step             ....  0.267387189
The final length of the internal step   ....  0.267387189
Converting the step to Cartesian space:
 Initial RMS(Int)=    0.0176694428
Transforming coordinates:
 Iter   0:  RMS(Cart)=    0.1536107713 RMS(Int)=    0.4143645622
 Iter   5:  RMS(Cart)=    0.0000106466 RMS(Int)=    0.0000027794
done
Storing new coordinates                 .... done

                                .--------------------.
          ----------------------|Geometry convergence|-------------------------
          Item                value                   Tolerance       Converged
          ---------------------------------------------------------------------
          RMS gradient        0.0017307740            0.0001000000      NO
          MAX gradient        0.0150965932            0.0003000000      NO
          RMS step            0.0176694428            0.0020000000      NO
          MAX step            0.1078805916            0.0040000000      NO
          -------------------------------------------------------------------------
          ........................................................
          Max(Bonds)      0.0544      Max(Angles)    1.10
          Max(Dihed)        6.18      Max(Improp)    0.00
          ---------------------------------------------------------------------

The optimization has not yet converged - more geometry cycles are needed


    ---------------------------------------------------------------------------
                         Redundant Internal Coordinates
                            (Angstroem and degrees)

        Definition                    Value    dE/dq     Step     New-Value
    ----------------------------------------------------------------------------
     1. B(N  13,H  11)                1.0143 -0.001566  0.0017    1.0160   
     2. B(C  14,N  13)                1.3490  0.001936 -0.0012    1.3478   
     3. B(C  15,C  14)                1.4790  0.000326  0.0001    1.4791   
     4. B(C  16,H   3)                1.0865  0.000107 -0.0002    1.0863   
     5. B(C  16,C  14)                1.4849 -0.002008  0.0024    1.4873   
     6. B(C  16,H   7)                1.0898  0.000148 -0.0002    1.0896   
     7. B(O  17,C  15)                1.2219 -0.015097  0.0077    1.2296   
     8. B(C  18,C  16)                1.5178 -0.000598  0.0012    1.5190   
     9. B(C  19,C  18)                1.3895 -0.000104  0.0001    1.3895   
    10. B(C  19,H   5)                1.0790  0.000120 -0.0002    1.0789   
    11. B(C  20,H   2)                1.0800  0.000401 -0.0006    1.0795   
    12. B(C  20,C  19)                1.3823  0.000095  0.0001    1.3823   
    13. B(C  21,C  20)                1.3898  0.000255 -0.0000    1.3898   
    14. B(C  22,C  21)                1.3911 -0.000320  0.0003    1.3914   
    15. B(C  22,H   6)                1.0792 -0.000050  0.0001    1.0792   
    16. B(C  23,C  22)                1.3794 -0.000583  0.0006    1.3799   
    17. B(C  23,C  18)                1.3920 -0.000196  0.0002    1.3923   
    18. B(C  23,H   9)                1.0795 -0.000150  0.0002    1.0797   
    19. B(O  24,C  21)                1.3817 -0.001851  0.0019    1.3836   
    20. B(C  25,O  24)                1.4267 -0.003203  0.0036    1.4303   
    21. B(C  25,H   4)                1.0921  0.000588 -0.0009    1.0913   
    22. B(C  25,H   0)                1.0927  0.000094 -0.0001    1.0925   
    23. B(C  26,C  25)                1.5103 -0.000107 -0.0000    1.5102   
    24. B(C  27,C  26)                1.3898  0.000172 -0.0002    1.3897   
    25. B(C  27,H   1)                1.0796  0.000460 -0.0006    1.0790   
    26. B(C  28,C  27)                1.3832 -0.000814  0.0007    1.3839   
    27. B(C  28,H  12)                1.0790  0.000712 -0.0010    1.0780   
    28. B(C  29,C  28)                1.3876 -0.000659  0.0006    1.3882   
    29. B(C  29,H   8)                1.0789  0.000817 -0.0011    1.0777   
    30. B(C  30,C  29)                1.3756 -0.000317  0.0003    1.3759   
    31. B(C  30,H  10)                1.0787  0.000364 -0.0005    1.0782   
    32. B(C  31,C  30)                1.4005 -0.000692  0.0006    1.4010   
    33. B(C  31,C  26)                1.4074 -0.000279 -0.0000    1.4074   
    34. B(N  32,C  31)                1.4136  0.001657 -0.0018    1.4118   
    35. B(O  33,H  11)                2.4117 -0.001621  0.0544    2.4661   
    36. B(O  33,N  32)                1.2462 -0.004090  0.0024    1.2485   
    37. B(O  34,N  32)                1.2297 -0.011839  0.0069    1.2366   
    38. B(N  36,H  11)                2.3461 -0.000177 -0.0194    2.3267   
    39. B(N  36,C  35)                1.4444 -0.001130  0.0013    1.4457   
    40. B(N  36,C  15)                1.3610  0.004035 -0.0033    1.3577   
    41. B(H  37,O  33)                1.9643  0.000291 -0.0041    1.9602   
    42. B(H  37,N  36)                1.0166  0.000170 -0.0000    1.0166   
    43. B(H  38,C  35)                1.0919  0.000100 -0.0001    1.0917   
    44. B(H  39,C  35)                1.0909  0.001098 -0.0016    1.0893   
    45. B(H  40,C  35)                1.0886 -0.000024  0.0000    1.0886   
    46. B(C  41,N  13)                1.3891  0.000058 -0.0001    1.3890   
    47. B(O  42,C  41)                1.2087 -0.010720  0.0052    1.2138   
    48. B(C  43,C  41)                1.5057  0.004075 -0.0053    1.5005   
    49. B(H  44,C  43)                1.0875  0.000480 -0.0007    1.0868   
    50. B(H  45,C  43)                1.0859  0.000306 -0.0004    1.0854   
    51. B(H  46,C  43)                1.0888  0.000995 -0.0014    1.0873   
    52. A(H  11,N  13,C  41)          114.61  0.000453   -0.14    114.47   
    53. A(C  14,N  13,C  41)          130.05  0.000670   -0.15    129.90   
    54. A(H  11,N  13,C  14)          115.31 -0.001115    0.29    115.60   
    55. A(N  13,C  14,C  15)          118.75  0.000169    0.26    119.00   
    56. A(N  13,C  14,C  16)          123.66  0.000050    0.01    123.67   
    57. A(C  15,C  14,C  16)          116.76 -0.000363    0.10    116.87   
    58. A(O  17,C  15,N  36)          123.77  0.001462   -0.24    123.53   
    59. A(C  14,C  15,O  17)          121.43 -0.000196   -0.04    121.39   
    60. A(C  14,C  15,N  36)          114.78 -0.001250    0.25    115.03   
    61. A(H   3,C  16,H   7)          111.65 -0.000522   -0.22    111.43   
    62. A(H   3,C  16,C  14)          112.80  0.001583   -0.32    112.48   
    63. A(C  14,C  16,C  18)           99.92 -0.004868    1.10    101.02   
    64. A(H   3,C  16,C  18)          111.46  0.001907   -0.30    111.15   
    65. A(H   7,C  16,C  14)          109.34  0.000843   -0.01    109.33   
    66. A(H   7,C  16,C  18)          111.13  0.000727   -0.13    111.00   
    67. A(C  16,C  18,C  23)          119.85 -0.001172    0.23    120.08   
    68. A(C  19,C  18,C  23)          119.39  0.000494   -0.06    119.33   
    69. A(C  16,C  18,C  19)          120.35  0.000615    0.03    120.38   
    70. A(C  18,C  19,C  20)          120.29 -0.000490    0.05    120.34   
    71. A(H   5,C  19,C  18)          119.75  0.000202   -0.01    119.74   
    72. A(H   5,C  19,C  20)          119.94  0.000287   -0.03    119.91   
    73. A(H   2,C  20,C  21)          119.24  0.000103   -0.02    119.21   
    74. A(C  19,C  20,C  21)          119.98  0.000037    0.01    119.99   
    75. A(H   2,C  20,C  19)          120.77 -0.000138    0.02    120.79   
    76. A(C  22,C  21,O  24)          120.46 -0.000627    0.09    120.55   
    77. A(C  20,C  21,O  24)          119.63  0.000662   -0.09    119.55   
    78. A(C  20,C  21,C  22)          119.90 -0.000029   -0.01    119.89   
    79. A(C  21,C  22,C  23)          119.82  0.000180   -0.02    119.80   
    80. A(H   6,C  22,C  23)          120.65 -0.000124    0.02    120.66   
    81. A(H   6,C  22,C  21)          119.51 -0.000054    0.00    119.52   
    82. A(C  18,C  23,C  22)          120.51 -0.000188    0.04    120.54   
    83. A(H   9,C  23,C  22)          119.84  0.000212   -0.03    119.81   
    84. A(H   9,C  23,C  18)          119.64 -0.000026    0.01    119.65   
    85. A(C  21,O  24,C  25)          112.86  0.002186   -0.05    112.82   
    86. A(H   0,C  25,H   4)          109.68  0.000174   -0.01    109.67   
    87. A(O  24,C  25,C  26)          108.83  0.000391    0.01    108.84   
    88. A(H   4,C  25,C  26)          109.89 -0.001001    0.29    110.18   
    89. A(H   0,C  25,C  26)          112.27  0.000071   -0.12    112.15   
    90. A(H   4,C  25,O  24)          105.20 -0.000829    0.15    105.35   
    91. A(H   0,C  25,O  24)          110.73  0.001127   -0.31    110.42   
    92. A(C  27,C  26,C  31)          117.56 -0.000243    0.03    117.58   
    93. A(C  25,C  26,C  31)          124.80  0.001369   -0.26    124.54   
    94. A(C  25,C  26,C  27)          117.10 -0.001060    0.16    117.26   
    95. A(C  26,C  27,C  28)          122.25  0.000391   -0.06    122.19   
    96. A(H   1,C  27,C  28)          119.55 -0.000458    0.07    119.62   
    97. A(H   1,C  27,C  26)          118.20  0.000065   -0.01    118.19   
    98. A(C  27,C  28,C  29)          119.73 -0.000249    0.04    119.77   
    99. A(H  12,C  28,C  29)          120.28 -0.000035    0.01    120.29   
   100. A(H  12,C  28,C  27)          119.99  0.000284   -0.04    119.94   
   101. A(C  28,C  29,C  30)          119.44 -0.000014    0.01    119.45   
   102. A(H   8,C  29,C  30)          120.01  0.000174   -0.03    119.98   
   103. A(H   8,C  29,C  28)          120.55 -0.000161    0.02    120.57   
   104. A(C  29,C  30,C  31)          121.06  0.000424   -0.07    120.99   
   105. A(H  10,C  30,C  31)          118.24 -0.000124    0.02    118.26   
   106. A(H  10,C  30,C  29)          120.69 -0.000300    0.05    120.74   
   107. A(C  30,C  31,N  32)          116.03 -0.000764    0.15    116.18   
   108. A(C  26,C  31,N  32)          124.00  0.001063   -0.19    123.81   
   109. A(C  26,C  31,C  30)          119.95 -0.000310    0.06    120.01   
   110. A(O  33,N  32,O  34)          120.99  0.003748   -0.43    120.56   
   111. A(C  31,N  32,O  34)          121.11 -0.001675    0.24    121.35   
   112. A(C  31,N  32,O  33)          117.87 -0.002125    0.31    118.18   
   113. A(N  36,C  35,H  38)          110.65  0.000406   -0.08    110.57   
   114. A(H  39,C  35,H  40)          109.74 -0.000009    0.02    109.76   
   115. A(H  38,C  35,H  40)          109.51  0.000091   -0.01    109.51   
   116. A(N  36,C  35,H  40)          108.21 -0.000663    0.13    108.33   
   117. A(H  38,C  35,H  39)          109.15 -0.000244    0.02    109.16   
   118. A(N  36,C  35,H  39)          109.57  0.000418   -0.08    109.49   
   119. A(C  35,N  36,H  37)          114.95  0.000357    0.09    115.04   
   120. A(C  15,N  36,H  37)          117.86  0.000907   -0.01    117.85   
   121. A(C  15,N  36,C  35)          120.34 -0.001679    0.36    120.70   
   122. A(O  42,C  41,C  43)          124.76 -0.000262    0.03    124.79   
   123. A(N  13,C  41,C  43)          111.26 -0.000759    0.10    111.36   
   124. A(N  13,C  41,O  42)          123.98  0.001020   -0.13    123.85   
   125. A(H  45,C  43,H  46)          109.00 -0.000460    0.09    109.09   
   126. A(H  44,C  43,H  46)          108.79 -0.000206   -0.01    108.78   
   127. A(C  41,C  43,H  46)          110.01  0.000530   -0.11    109.90   
   128. A(H  44,C  43,H  45)          109.97 -0.000571    0.14    110.11   
   129. A(C  41,C  43,H  45)          109.54  0.000142   -0.01    109.53   
   130. A(C  41,C  43,H  44)          109.52  0.000557   -0.10    109.42   
   131. D(C  15,C  14,N  13,C  41)    179.23 -0.000543    1.13    180.36   
   132. D(C  16,C  14,N  13,C  41)     10.00  0.000428   -1.27      8.74   
   133. D(C  15,C  14,N  13,H  11)      1.30 -0.000843    1.25      2.55   
   134. D(C  16,C  14,N  13,H  11)   -167.93  0.000128   -1.15   -169.07   
   135. D(O  17,C  15,C  14,C  16)    -37.95 -0.001572    5.20    -32.75   
   136. D(N  36,C  15,C  14,C  16)    143.64 -0.002223    6.18    149.82   
   137. D(O  17,C  15,C  14,N  13)    152.09 -0.000708    2.98    155.07   
   138. D(N  36,C  15,C  14,N  13)    -26.32 -0.001358    3.96    -22.36   
   139. D(C  18,C  16,C  14,N  13)     86.62  0.000467    0.63     87.25   
   140. D(H   3,C  16,C  14,N  13)    -31.82  0.000357    0.49    -31.33   
   141. D(H   3,C  16,C  14,C  15)    158.76  0.001258   -1.88    156.88   
   142. D(H   7,C  16,C  14,C  15)     33.89  0.000158   -1.35     32.54   
   143. D(H   7,C  16,C  14,N  13)   -156.69 -0.000743    1.01   -155.67   
   144. D(C  19,C  18,C  16,H   3)     25.32 -0.000275    0.19     25.51   
   145. D(C  19,C  18,C  16,H   7)    150.55  0.001021   -0.43    150.12   
   146. D(C  19,C  18,C  16,C  14)    -94.11 -0.000231    0.08    -94.03   
   147. D(C  23,C  18,C  16,H   7)    -36.83  0.000488    1.41    -35.42   
   148. D(C  23,C  18,C  16,H   3)   -162.06 -0.000808    2.02   -160.03   
   149. D(C  20,C  19,C  18,C  16)    170.28 -0.000564    1.83    172.11   
   150. D(C  20,C  19,C  18,C  23)     -2.38  0.000089   -0.02     -2.40   
   151. D(H   5,C  19,C  18,C  16)     -8.40 -0.000498    1.46     -6.94   
   152. D(H   5,C  19,C  18,C  23)    178.94  0.000155   -0.39    178.55   
   153. D(C  21,C  20,C  19,C  18)     -0.30 -0.000046    0.25     -0.05   
   154. D(C  21,C  20,C  19,H   5)    178.37 -0.000113    0.63    179.00   
   155. D(H   2,C  20,C  19,C  18)   -178.91 -0.000109   -0.10   -179.01   
   156. D(H   2,C  20,C  19,H   5)     -0.23 -0.000176    0.28      0.04   
   157. D(O  24,C  21,C  20,C  19)   -175.90 -0.000389   -0.19   -176.09   
   158. D(O  24,C  21,C  20,H   2)      2.72 -0.000331    0.16      2.88   
   159. D(C  22,C  21,C  20,C  19)      2.94 -0.000015   -0.32      2.62   
   160. D(C  22,C  21,C  20,H   2)   -178.43  0.000043    0.03   -178.40   
   161. D(H   6,C  22,C  21,C  20)    178.80 -0.000048   -0.01    178.79   
   162. D(C  23,C  22,C  21,O  24)    175.96  0.000407    0.02    175.98   
   163. D(C  23,C  22,C  21,C  20)     -2.87  0.000015    0.15     -2.72   
   164. D(H   6,C  22,C  21,O  24)     -2.36  0.000344   -0.15     -2.51   
   165. D(C  18,C  23,C  22,C  21)      0.17  0.000043    0.08      0.25   
   166. D(C  18,C  23,C  22,H   6)    178.48  0.000108    0.25    178.72   
   167. D(H   9,C  23,C  22,C  21)   -178.21  0.000102   -0.52   -178.73   
   168. D(H   9,C  23,C  22,H   6)      0.10  0.000167   -0.35     -0.25   
   169. D(C  22,C  23,C  18,C  19)      2.45 -0.000079   -0.15      2.30   
   170. D(C  22,C  23,C  18,C  16)   -170.24  0.000438   -1.97   -172.22   
   171. D(H   9,C  23,C  18,C  19)   -179.17 -0.000134    0.45   -178.72   
   172. D(H   9,C  23,C  18,C  16)      8.14  0.000383   -1.37      6.76   
   173. D(C  25,O  24,C  21,C  22)    -76.37 -0.000008    0.65    -75.72   
   174. D(C  25,O  24,C  21,C  20)    102.47  0.000375    0.52    102.99   
   175. D(C  26,C  25,O  24,C  21)    -73.99 -0.001390    2.06    -71.93   
   176. D(H   4,C  25,O  24,C  21)    168.29  0.000022    1.63    169.93   
   177. D(H   0,C  25,O  24,C  21)     49.87 -0.000284    1.71     51.59   
   178. D(C  31,C  26,C  25,H   4)   -156.63  0.001015   -2.69   -159.32   
   179. D(C  31,C  26,C  25,H   0)    -34.28  0.000572   -2.57    -36.85   
   180. D(C  27,C  26,C  25,O  24)    -82.65  0.001840   -2.50    -85.16   
   181. D(C  27,C  26,C  25,H   4)     32.05  0.000524   -2.16     29.89   
   182. D(C  27,C  26,C  25,H   0)    154.40  0.000081   -2.04    152.36   
   183. D(C  28,C  27,C  26,C  31)      0.47 -0.000381    0.47      0.94   
   184. D(C  28,C  27,C  26,C  25)    172.44  0.000225   -0.04    172.39   
   185. D(H   1,C  27,C  26,C  31)   -178.77 -0.000267    0.28   -178.49   
   186. D(H   1,C  27,C  26,C  25)     -6.80  0.000339   -0.24     -7.04   
   187. D(C  29,C  28,C  27,C  26)     -1.02  0.000180   -0.21     -1.23   
   188. D(C  29,C  28,C  27,H   1)    178.21  0.000068   -0.01    178.20   
   189. D(H  12,C  28,C  27,C  26)    179.52  0.000144   -0.20    179.32   
   190. D(H  12,C  28,C  27,H   1)     -1.25  0.000032   -0.00     -1.25   
   191. D(C  30,C  29,C  28,H  12)   -179.82  0.000125   -0.13   -179.95   
   192. D(H   8,C  29,C  28,C  27)   -179.47 -0.000037    0.03   -179.44   
   193. D(H   8,C  29,C  28,H  12)     -0.01  0.000000    0.02      0.01   
   194. D(C  30,C  29,C  28,C  27)      0.72  0.000087   -0.12      0.60   
   195. D(C  31,C  30,C  29,C  28)      0.08 -0.000139    0.17      0.25   
   196. D(C  31,C  30,C  29,H   8)   -179.73 -0.000015    0.02   -179.70   
   197. D(H  10,C  30,C  29,C  28)    179.18 -0.000143    0.16    179.34   
   198. D(H  10,C  30,C  29,H   8)     -0.63 -0.000018    0.01     -0.61   
   199. D(N  32,C  31,C  30,C  29)    177.75 -0.000460    0.85    178.59   
   200. D(N  32,C  31,C  30,H  10)     -1.38 -0.000455    0.86     -0.52   
   201. D(C  26,C  31,C  30,C  29)     -0.62 -0.000071    0.10     -0.52   
   202. D(C  26,C  31,C  30,H  10)   -179.74 -0.000066    0.11   -179.63   
   203. D(N  32,C  31,C  26,C  27)   -177.88  0.000778   -1.23   -179.11   
   204. D(N  32,C  31,C  26,C  25)     10.83  0.000349   -0.71     10.12   
   205. D(C  30,C  31,C  26,C  27)      0.34  0.000323   -0.41     -0.07   
   206. D(C  30,C  31,C  26,C  25)   -170.94 -0.000106    0.11   -170.83   
   207. D(O  34,N  32,C  31,C  30)   -160.55  0.000718   -1.63   -162.18   
   208. D(O  34,N  32,C  31,C  26)     17.74  0.000284   -0.84     16.89   
   209. D(O  33,N  32,C  31,C  30)     17.48 -0.000945    2.22     19.71   
   210. D(O  33,N  32,C  31,C  26)   -164.23 -0.001378    3.01   -161.22   
   211. D(H  37,N  36,C  35,H  40)   -166.87  0.000231   -0.43   -167.30   
   212. D(H  37,N  36,C  35,H  39)     73.51  0.000395   -0.49     73.02   
   213. D(H  37,N  36,C  35,H  38)    -46.88  0.000170   -0.42    -47.30   
   214. D(C  15,N  36,C  35,H  40)    -16.46 -0.000289    0.43    -16.03   
   215. D(C  15,N  36,C  35,H  39)   -136.08 -0.000126    0.37   -135.71   
   216. D(C  15,N  36,C  35,H  38)    103.52 -0.000350    0.45    103.98   
   217. D(H  37,N  36,C  15,O  17)    157.79 -0.001120    1.66    159.45   
   218. D(H  37,N  36,C  15,C  14)    -23.85 -0.000484    0.66    -23.19   
   219. D(C  35,N  36,C  15,O  17)      8.22 -0.000398    0.73      8.95   
   220. D(C  35,N  36,C  15,C  14)   -173.42  0.000238   -0.27   -173.68   
   221. D(C  43,C  41,N  13,C  14)   -177.48  0.000098   -0.49   -177.96   
   222. D(C  43,C  41,N  13,H  11)      0.47  0.000369   -0.60     -0.13   
   223. D(O  42,C  41,N  13,C  14)      3.29  0.000153   -0.49      2.80   
   224. D(O  42,C  41,N  13,H  11)   -178.77  0.000425   -0.61   -179.37   
   225. D(H  46,C  43,C  41,N  13)    -67.59 -0.000097   -0.37    -67.96   
   226. D(H  45,C  43,C  41,O  42)     -8.15  0.000009   -0.40     -8.56   
   227. D(H  45,C  43,C  41,N  13)    172.62  0.000053   -0.40    172.21   
   228. D(H  44,C  43,C  41,O  42)   -128.83  0.000275   -0.51   -129.34   
   229. D(H  44,C  43,C  41,N  13)     51.94  0.000319   -0.51     51.43   
    ----------------------------------------------------------------------------

Geometry step timings:
Preparation and reading OPT file:      0.000 s ( 0.177 %)
Internal coordinates            :      0.000 s ( 0.222 %)
B/P matrices and projection     :      0.005 s (38.320 %)
Hessian update/contruction      :      0.002 s (16.369 %)
Making the step                 :      0.005 s (33.882 %)
Converting the step to Cartesian:      0.001 s ( 4.127 %)
Storing new data                :      0.000 s ( 0.317 %)
Checking convergence            :      0.000 s ( 0.354 %)
Final printing                  :      0.001 s ( 6.217 %)
Total time                      :      0.014 s

Time for energy+gradient        :      0.159 s
Time for complete geometry iter :      0.173 s

         *************************************************************
         *                GEOMETRY OPTIMIZATION CYCLE   2            *
         *************************************************************
---------------------------------
CARTESIAN COORDINATES (ANGSTROEM)
---------------------------------
  H    -2.922275   -1.528553    1.479307
  H    -0.573594   -2.008269    4.184444
  H     1.073206   -1.126420    0.628211
  H     0.795596    1.301886   -3.432345
  H    -2.262910   -2.630514    2.719565
  H     1.480432    0.391128   -1.280986
  H    -2.748880   -2.130862   -0.977062
  H    -0.743527    0.767027   -4.191573
  H     0.999700    1.958971    4.317440
  H    -2.347841   -0.616518   -2.883147
  H    -0.338447    2.529733    2.326393
  H    -1.084072    3.714623   -1.337721
  H     0.854671   -0.328305    5.265437
  N    -0.436195    3.095737   -1.816572
  C    -0.996065    2.203738   -2.657832
  C    -2.460931    2.230384   -2.858403
  C    -0.252475    1.068905   -3.266928
  O    -2.975487    1.796820   -3.887594
  C    -0.418032    0.008510   -2.192406
  C     0.553756   -0.157244   -1.213722
  C     0.330027   -1.004715   -0.145179
  C    -0.871642   -1.696135   -0.045797
  C    -1.826069   -1.576121   -1.050710
  C    -1.598343   -0.726179   -2.113691
  O    -1.116163   -2.477272    1.069390
  C    -2.014827   -1.855638    1.992338
  C    -1.303623   -0.709407    2.670427
  C    -0.533735   -1.005285    3.788634
  C     0.280559   -0.063011    4.392415
  C     0.362773    1.217875    3.862893
  C    -0.378304    1.538407    2.748625
  C    -1.217626    0.593154    2.144754
  N    -1.956187    1.036627    1.025537
  O    -1.563545    2.058872    0.425663
  O    -2.945987    0.414529    0.622521
  C    -4.610797    2.785940   -1.854308
  N    -3.165369    2.812284   -1.853861
  H    -2.735559    2.850451   -0.932628
  H    -4.981235    2.051181   -1.136858
  H    -4.992395    3.770601   -1.587040
  H    -4.948098    2.519466   -2.854485
  C     0.896185    3.276954   -1.468184
  O     1.812235    2.638128   -1.943770
  C     1.051315    4.368495   -0.450410
  H     0.375430    4.186092    0.380827
  H     2.077796    4.393063   -0.098387
  H     0.805581    5.328837   -0.897245

----------------------------
CARTESIAN COORDINATES (A.U.)
----------------------------
  NO LB    ZA    FRAG    MASS        X           Y           Z
   0 H   1.0000    0     1.008   -5.522299   -2.888547    2.795484
   1 H   1.0000    0     1.008   -1.083935   -3.795079    7.907454
   2 H   1.0000    0     1.008    2.028065   -2.128626    1.187146
   3 H   1.0000    0     1.008    1.503458    2.460208   -6.486192
   4 H   1.0000    0     1.008   -4.276280   -4.970950    5.139233
   5 H   1.0000    0     1.008    2.797611    0.739124   -2.420714
   6 H   1.0000    0     1.008   -5.194630   -4.026745   -1.846380
   7 H   1.0000    0     1.008   -1.405061    1.449472   -7.920925
[...]
  26 C   6.0000    0    12.011   -2.463843   -1.293922    5.039139
  27 C   6.0000    0    12.011   -0.996771   -1.953358    7.114863
  28 C   6.0000    0    12.011    0.608582   -0.251228    8.284950
  29 C   6.0000    0    12.011    0.812654    2.194778    7.360952
  30 C   6.0000    0    12.011   -0.607118    2.905406    5.301897
  31 C   6.0000    0    12.011   -2.257233    1.198422    4.126509
  32 N   7.0000    0    14.007   -3.664878    2.163288    2.085641
  33 O   8.0000    0    15.999   -2.937051    4.167099    1.075189
  34 O   8.0000    0    15.999   -5.609054    1.098912    1.324983
  35 C   6.0000    0    12.011   -8.691502    5.071008   -3.499572
  36 N   7.0000    0    14.007   -5.961706    5.186719   -3.511318
  37 H   1.0000    0     1.008   -5.144661    5.209300   -1.770738
  38 H   1.0000    0     1.008   -9.348196    3.562193   -2.254161
  39 H   1.0000    0     1.008   -9.442760    6.871214   -2.846463
  40 H   1.0000    0     1.008   -9.332819    4.695858   -5.417420
  41 C   6.0000    0    12.011    1.673075    6.252520   -2.770393
  42 O   8.0000    0    15.999    3.426518    4.983245   -3.547698
  43 C   6.0000    0    12.011    1.918995    8.372539   -0.911909
  44 H   1.0000    0     1.008    0.605391    8.076691    0.640219
  45 H   1.0000    0     1.008    3.841662    8.440972   -0.200885
  46 H   1.0000    0     1.008    1.472717   10.159524   -1.823798

      -----------------------------------------------------------      
     |                   =====================                   |     
     |                           x T B                           |     
     |                   =====================                   |     
     |                         S. Grimme                         |     
     |          Mulliken Center for Theoretical Chemistry        |     
     |                    University of Bonn                     |     
      -----------------------------------------------------------      

   * xtb version 6.7.1 (edcfbbe) compiled by 'albert@albert-system' on 2024-07-22

   xtb is free software: you can redistribute it and/or modify it under
   the terms of the GNU Lesser General Public License as published by
   the Free Software Foundation, either version 3 of the License, or
   (at your option) any later version.
   
   xtb is distributed in the hope that it will be useful,
   but WITHOUT ANY WARRANTY; without even the implied warranty of
   MERCHANTABILITY or FITNESS FOR A PARTICULAR PURPOSE.  See the
   GNU Lesser General Public License for more details.
   
   Cite this work as:
   * C. Bannwarth, E. Caldeweyher, S. Ehlert, A. Hansen, P. Pracht,
     J. Seibert, S. Spicher, S. Grimme, WIREs Comput. Mol. Sci., 2020, 11,
     e01493. DOI: 10.1002/wcms.1493
   
   for GFN2-xTB:
   * C. Bannwarth, S. Ehlert and S. Grimme., J. Chem. Theory Comput., 2019,
     15, 1652-1671. DOI: 10.1021/acs.jctc.8b01176
   for GFN1-xTB:
   * S. Grimme, C. Bannwarth, P. Shushkov, J. Chem. Theory Comput., 2017,
     13, 1989-2009. DOI: 10.1021/acs.jctc.7b00118
   for GFN0-xTB:
   * P. Pracht, E. Caldeweyher, S. Ehlert, S. Grimme, ChemRxiv, 2019, preprint.
     DOI: 10.26434/chemrxiv.8326202.v1
   for GFN-FF:
   * S. Spicher and S. Grimme, Angew. Chem. Int. Ed., 2020, 59, 15665-15673.
     DOI: 10.1002/anie.202004239
   
   for ALPB and GBSA implicit solvation:
   * S. Ehlert, M. Stahn, S. Spicher, S. Grimme, J. Chem. Theory Comput.,
     2021, 17, 4250-4261. DOI: 10.1021/acs.jctc.1c00471
   
   for ddCOSMO and CPCM-X implicit solvation:
   * M. Stahn, S. Ehlert, S. Grimme, J. Phys. Chem. A,
     2023, XX, XXXX-XXXX. DOI: 10.1021/acs.jpca.3c04382
   
   for DFT-D4:
   * E. Caldeweyher, C. Bannwarth and S. Grimme, J. Chem. Phys., 2017,
     147, 034112. DOI: 10.1063/1.4993215
   * E. Caldeweyher, S. Ehlert, A. Hansen, H. Neugebauer, S. Spicher,
     C. Bannwarth and S. Grimme, J. Chem. Phys., 2019, 150, 154122.
     DOI: 10.1063/1.5090222
   * E. Caldeweyher, J.-M. Mewes, S. Ehlert and S. Grimme, Phys. Chem. Chem. Phys.
     2020, 22, 8499-8512. DOI: 10.1039/D0CP00502A
   
   for sTDA-xTB:
   * S. Grimme and C. Bannwarth, J. Chem. Phys., 2016, 145, 054103.
     DOI: 10.1063/1.4959605
   
   in the mass-spec context:
   * V. Asgeirsson, C. Bauer and S. Grimme, Chem. Sci., 2017, 8, 4879.
     DOI: 10.1039/c7sc00601b
   * J. Koopman and S. Grimme, ACS Omega 2019, 4, 12, 15120-15133.
     DOI: 10.1021/acsomega.9b02011
   
   for metadynamics refer to:
   * S. Grimme, J. Chem. Theory Comput., 2019, 155, 2847-2862
     DOI: 10.1021/acs.jctc.9b00143
   
   for SPH calculations refer to:
   * S. Spicher and S. Grimme, J. Chem. Theory Comput., 2021, 17, 1701-1714
     DOI: 10.1021/acs.jctc.0c01306
   
   for ONIOM refer to:
   * C. Plett, A. Katbashev, S. Ehlert, S. Grimme, M. Bursch,
     Phys. Chem. Chem. Phys., 2023, 25, 17860-17868. DOI: 10.1039/D3CP02178E
   
   for DIPRO refer to:
   * J. Kohn, N. Gildemeister, S. Grimme, D. Fazzi, A. Hansen,
     J. Chem. Phys., 2023, just accepted.
   
   for PTB refer to:
   * S. Grimme, M. Mueller, A. Hansen, J. Chem. Phys., 2023, 158, 124111.
     DOI: 10.1063/5.0137838
   
   with help from (in alphabetical order)
   P. Atkinson, C. Bannwarth, F. Bohle, G. Brandenburg, E. Caldeweyher
   M. Checinski, S. Dohm, S. Ehlert, S. Ehrlich, I. Gerasimov, C. Hölzer
   A. Katbashev, J. Kohn, J. Koopman, C. Lavigne, S. Lehtola, F. März, M. Müller,
   F. Musil, H. Neugebauer, J. Pisarek, C. Plett, P. Pracht, F. Pultar,
   J. Seibert, P. Shushkov, S. Spicher, M. Stahn, M. Steiner, T. Strunk,
   J. Stückrath, T. Rose, and J. Unsleber
   
 * started run on 2025/07/16 at 15:48:06.517     
   ID    Z sym.   atoms
    1    1 H      1-13, 38-41, 45-47
    2    7 N      14, 33, 37
    3    6 C      15-17, 19-24, 26-32, 36, 42, 44
    4    8 O      18, 25, 34, 35, 43

           -------------------------------------------------
          |                Calculation Setup                |
           -------------------------------------------------

          program call               : /home/esp/bin/orca_6_1_0/otool_xtb /home/esp/scriptDevelopment/drFrankenstein/11_PCY_CHARMM/04_torsion_scanning/torsion_NH1-CT1-CG321-CG2R61/scans_PCY_conformer_30/PCY_conformer_30_opt/orca_opt_XTB.xyz --grad -c 0 -u 0 -P 1 --namespace /home/esp/scriptDevelopment/drFrankenstein/11_PCY_CHARMM/04_torsion_scanning/torsion_NH1-CT1-CG321-CG2R61/scans_PCY_conformer_30/PCY_conformer_30_opt/orca_opt --input /home/esp/scriptDevelopment/drFrankenstein/11_PCY_CHARMM/04_torsion_scanning/torsion_NH1-CT1-CG321-CG2R61/scans_PCY_conformer_30/PCY_conformer_30_opt/orca_opt_XTB.input.tmp --alpb WATER --acc 0.200000
          calculation namespace      : /home/esp/scriptDevelopment/drFrankenstein/11_PCY_CHARMM/04_torsion_scanning/torsion_NH1-CT1-CG321-CG2R61/scans_PCY_conformer_30/PCY_conformer_30_opt/orca_opt
          coordinate file            : /home/esp/scriptDevelopment/drFrankenstein/11_PCY_CHARMM/04_torsion_scanning/torsion_NH1-CT1-CG321-CG2R61/scans_PCY_conformer_30/PCY_conformer_30_opt/orca_opt_XTB.xyz
          omp threads                :                     1


           -------------------------------------------------
          |                 G F N 2 - x T B                 |
           -------------------------------------------------

        Reference                      10.1021/acs.jctc.8b01176
      * Hamiltonian:
        H0-scaling (s, p, d)           1.850000    2.230000    2.230000
        zeta-weighting                 0.500000
      * Dispersion:
        s8                             2.700000
        a1                             0.520000
        a2                             5.000000
        s9                             5.000000
      * Repulsion:
        kExp                           1.500000    1.000000
        rExp                           1.000000
      * Coulomb:
        alpha                          2.000000
        third order                    shell-resolved
        anisotropic                    true
        a3                             3.000000
        a5                             4.000000
        cn-shift                       1.200000
        cn-exp                         4.000000
        max-rad                        5.000000

      * Solvation model:               ALPB
        Solvent                        WATER
        Parameter file                 internal GFN2-xTB/ALPB
        Dielectric constant                8.0200E+01
        Reference state                gsolv [1 M gas/solution]
        Free energy shift                  1.0808E-03 Eh       6.7819E-01 kcal/mol
        Temperature                        2.9815E+02 K
        Density                            1.0000E+00 kg/L
        Solvent mass                       1.8000E+01 g/mol
        Interaction kernel             P16
        Born radius scaling (c1)           1.4744E+00
        Born radii integrator          GBOBC
        Born offset                        0.0000E+00 a0       0.0000E+00 AA
        H-bond correction              true
        Ion screening                  false
        Surface tension                    1.0000E-05 Eh       1.5569E+01 dyn/cm
        Grid points                               230 per atom
q/qsh data taken from xtbrestart
CAMM data taken from xtbrestart

          ...................................................
          :                      SETUP                      :
          :.................................................:
          :  # basis functions                 128          :
          :  # atomic orbitals                 128          :
          :  # shells                           74          :
          :  # electrons                       141          :
          :  max. iterations                   250          :
          :  Hamiltonian                  GFN2-xTB          :
          :  restarted?                       true          :
          :  GBSA solvation                   true          :
          :  PC potential                    false          :
          :  electronic temp.          300.0000000     K    :
          :  accuracy                    0.2000000          :
          :  -> integral cutoff          0.3198970E+02      :
          :  -> integral neglect         0.2000000E-08      :
          :  -> SCF convergence          0.2000000E-06 Eh   :
          :  -> wf. convergence          0.2000000E-04 e    :
          :  Broyden damping             0.4000000          :
          :  net charge                          0          :
          :  unpaired electrons                  0          :
          ...................................................

 iter      E             dE          RMSdq      gap      omega  full diag
   1    -80.9385590 -0.809386E+02  0.538E-03    0.08       0.0  T
   2    -80.9384813  0.777376E-04  0.362E-02    0.08       1.0  T
   3    -80.9385599 -0.785702E-04  0.287E-03    0.08       5.1  T
   4    -80.9385602 -0.314797E-06  0.544E-04    0.08      26.8  T
   5    -80.9385602 -0.129337E-07  0.140E-04    0.08     104.3  T
   6    -80.9385602 -0.102560E-08  0.324E-05    0.08     450.0  T

   *** convergence criteria satisfied after 6 iterations ***

         #    Occupation            Energy/Eh            Energy/eV
      -------------------------------------------------------------
         1        2.0000           -0.7619960             -20.7350
       ...           ...                  ...                  ...
        65        2.0000           -0.4243209             -11.5464
        66        2.0000           -0.4158836             -11.3168
        67        2.0000           -0.4127495             -11.2315
        68        2.0000           -0.4105838             -11.1726
        69        2.0000           -0.4035431             -10.9810
        70        2.0000           -0.3992996             -10.8655
        71        0.8231           -0.3319788              -9.0336 (HOMO)
        72        0.1769           -0.3290572              -8.9541 (LUMO)
        73                         -0.2506119              -6.8195
        74                         -0.2364885              -6.4352
        75                         -0.2353331              -6.4037
        76                         -0.2333278              -6.3492
       ...                                ...                  ...
       128                          0.6475505              17.6207
      -------------------------------------------------------------
                  HL-Gap            0.0029215 Eh            0.0795 eV
             Fermi-level           -0.3480786 Eh           -9.4717 eV

 SCC (total)                   0 d,  0 h,  0 min,  0.089 sec
 SCC setup                      ...        0 min,  0.002 sec (  1.800%)
 Dispersion                     ...        0 min,  0.001 sec (  0.621%)
 classical contributions        ...        0 min,  0.000 sec (  0.086%)
 integral evaluation            ...        0 min,  0.010 sec ( 11.587%)
 iterations                     ...        0 min,  0.047 sec ( 52.701%)
 molecular gradient             ...        0 min,  0.028 sec ( 31.478%)
 printout                       ...        0 min,  0.001 sec (  1.669%)

         :::::::::::::::::::::::::::::::::::::::::::::::::::::
         ::                     SUMMARY                     ::
         :::::::::::::::::::::::::::::::::::::::::::::::::::::
         :: total energy             -79.896845002373 Eh    ::
         :: total w/o Gsasa/hb       -79.893397445682 Eh    ::
         :: gradient norm              0.000155570083 Eh/a0 ::
         :: HOMO-LUMO gap              0.079499224574 eV    ::
         ::.................................................::
         :: SCC energy               -80.936254612946 Eh    ::
         :: -> isotropic ES            0.187490844278 Eh    ::
         :: -> anisotropic ES         -0.006889928500 Eh    ::
         :: -> anisotropic XC          0.021456525101 Eh    ::
         :: -> dispersion             -0.059062600215 Eh    ::
         :: -> Gsolv                  -0.033634717793 Eh    ::
         ::    -> Gelec               -0.030187161103 Eh    ::
         ::    -> Gsasa                0.001248784038 Eh    ::
         ::    -> Ghb                 -0.005777100427 Eh    ::
         ::    -> Gshift               0.001080759698 Eh    ::
         :: repulsion energy           1.039409610573 Eh    ::
         :: add. restraining           0.000000000000 Eh    ::
         :: total charge              -0.000000000000 e     ::
         :::::::::::::::::::::::::::::::::::::::::::::::::::::


Property printout bound to 'properties.out'

           -------------------------------------------------
          | TOTAL ENERGY              -79.896845002373 Eh   |
          | GRADIENT NORM               0.000155570083 Eh/α |
          | HOMO-LUMO GAP               0.079499224574 eV   |
           -------------------------------------------------

------------------------------------------------------------------------
 * finished run on 2025/07/16 at 15:48:06.652     
------------------------------------------------------------------------
 total:
 * wall-time:     0 d,  0 h,  0 min,  0.135 sec
 *  cpu-time:     0 d,  0 h,  0 min,  0.083 sec
 * ratio c/w:     0.620 speedup
 SCF:
 * wall-time:     0 d,  0 h,  0 min,  0.089 sec
 *  cpu-time:     0 d,  0 h,  0 min,  0.063 sec
 * ratio c/w:     0.704 speedup


-------------------------   --------------------
FINAL SINGLE POINT ENERGY       -79.896845002370
-------------------------   --------------------


-------------
DIPOLE MOMENT
-------------
                                X             Y             Z
Total Dipole Moment    :      0.76600       1.97000       3.05200
                        -----------------------------------------
Magnitude (a.u.)       :      3.71246
Magnitude (Debye)      :      9.43632

                                *** OPTIMIZATION RUN DONE ***


--------------------------------
SUGGESTED CITATIONS FOR THIS RUN
--------------------------------

Below you find a list of papers that are relevant to this ORCA run
We neither can nor want to force you to cite these papers, but we appreciate if you do
You receive ORCA, which is the product of decades of hard work by many enthusiastic individuals, for free
The only thing we kindly ask in return is that you cite our papers,
We deeply appreciate it, if you show your appreciation for ORCA by not just citing the generic ORCA reference.

Please note that relegating all ORCA citations to the supporting information does *not* help us.
SI sections are not indexed - citations you put there will not count into any citation statistics
But we need these citations in order to attract the funding resources that allow us to do what we are doing

Therefore, if you are a happy ORCA user, please consider citing a few of the papers listed below in the main body of your paper

In addition to the list printed below, the program has created the file /home/esp/scriptDevelopment/drFrankenstein/11_PCY_CHARMM/04_torsion_scanning/torsion_NH1-CT1-CG321-CG2R61/scans_PCY_conformer_30/PCY_conformer_30_opt/orca_opt.bibtex that contains the list in bibtex format
You can import this file easily into all common literature databanks and citation aid programs


List of essential papers. We consider these as the minimum necessary citations

  1. Bannwarth, C.; Ehlert, S.; Grimme, S.
     GFN2-xTB—An Accurate and Broadly Parametrized Self-Consistent Tight-Binding Quantum Chemical Method with Multipole Electrostatics and Density-Dependent Dispersion Contributions
     J. Chem. Theory Comput. 2019 15(3), 1652-1671
     doi.org/10.1021/acs.jctc.8b01176
  2. Neese, F.
     Software update: the ORCA program system, version 6.0
     WIRES Comput. Molec. Sci. 2025 15(1), e70019
     doi.org/10.1002/wcms.7019

List of papers to cite with high priority. The work reported in these papers was absolutely
necessary for this run to complete.
Our perspective: the developers of density functionals and basis sets usually get cited in chemistry papers
Good! But without the algorithms to do something with them, the functionals or basis sets would not do anything.
Hence, in our opinion, the algorithm design and method developments papers are equally worthy of getting cited

  1. Bannwarth, C.; Caldeweyher, E.; Ehlert, S.; Hansen, A.; Pracht, P.; Seibert, J.; Spicher, S.; Grimme, S.
     Extended tight-binding quantum chemistry methods
     WIRES Comput. Molec. Sci. 2020 11(2), e1493
     doi.org/10.1002/wcms.1493

List of suggested additional citations. These are papers that are important in the 'surrounding' of 
of this run, or papers that preceded the highly important papers. If you like your results we are grateful for a citation.

  1. Neese, F.
     The ORCA program system
     WIRES Comput. Molec. Sci. 2012 2(1), 73-78
     doi.org/10.1002/wcms.81
  2. Neese, F.
     Software update: the ORCA program system, version 4.0
     WIRES Comput. Molec. Sci. 2018 8(1), 1-6
     doi.org/10.1002/wcms.1327
  3. Neese, F.; Wennmohs, F.; Becker, U.; Riplinger, C.
     The ORCA quantum chemistry program package
     J. Chem. Phys. 2020 152(22), 224108
     doi.org/10.1063/5.0004608
  4. Neese, F.
     Software update: The ORCA program system—Version 5.0
     WIRES Comput. Molec. Sci. 2022 12(1), e1606
     doi.org/10.1002/wcms.1606

List of optional additional citations

  1. Neese, F.
     Approximate second-order SCF convergence for spin unrestricted wavefunctions
     Chem. Phys. Lett. 2000 325(1-3), 93-98
     doi.org/10.1016/s0009-2614(00)00662-x

Timings for individual modules:

Sum of individual times          ...        2.486 sec (=   0.041 min)
Geometry relaxation              ...        0.259 sec (=   0.004 min)  10.4 %
XTB module                       ...        2.227 sec (=   0.037 min)  89.6 %
                             ****ORCA TERMINATED NORMALLY****
TOTAL RUN TIME: 0 days 0 hours 0 minutes 2 seconds 610 msec
