47
Coordinates from ORCA-job /home/esp/scriptDevelopment/drFrankenstein/11_PCY_CHARMM/04_torsion_scanning/torsion_NH1-CT1-CG321-CG2R61/scans_PCY_conformer_18/PCY_conformer_18_forwards/orca_scan Relaxed Surface Scan Step 1 E -79.900308762740
  H      -0.392654     -2.825613      3.294443
  H       0.235263      0.037619      4.563582
  H       0.594726      0.337119      1.617539
  H       1.156743      1.788776     -3.028481
  H       0.885875     -1.608841      3.045077
  H       0.705934      1.873128     -0.267384
  H      -0.547068     -2.820587     -1.021159
  H      -0.191703      0.931096     -3.786268
  H      -3.365257      2.244881      3.923194
  H      -0.418443     -1.266658     -2.932132
  H      -4.075595      0.561997      2.246663
  H      -1.063295      4.495632     -2.247706
  H      -1.220672      1.933128      5.120366
  N      -0.289357      3.868561     -2.495741
  C      -0.737293      2.586399     -2.565089
  C      -2.153040      2.484242     -2.250023
  C       0.141051      1.423028     -2.868217
  O      -2.794010      3.515544     -1.954428
  C       0.124561      0.428624     -1.730106
  C       0.421795      0.846286     -0.440954
  C       0.359813     -0.025984      0.630638
  C      -0.011678     -1.349345      0.421047
  C      -0.274819     -1.786980     -0.876535
  C      -0.208745     -0.906324     -1.935754
  O      -0.156357     -2.294680      1.397642
  C      -0.130792     -1.906496      2.759958
  C      -1.095786     -0.806559      3.128533
  C      -0.719288      0.143434      4.071694
  C      -1.535232      1.218665      4.376908
  C      -2.739514      1.394031      3.710525
  C      -3.138184      0.465113      2.771897
  C      -2.337754     -0.644965      2.507901
  N      -2.863672     -1.611921      1.600403
  O      -2.728194     -2.798291      1.857845
  O      -3.477142     -1.198802      0.622648
  C      -4.095395      1.022557     -1.935147
  N      -2.729614      1.268303     -2.328650
  H      -2.148253      0.458198     -2.474656
  H      -4.659036      0.611302     -2.772651
  H      -4.125573      0.316148     -1.104053
  H      -4.535196      1.971298     -1.633554
  C       0.952715      4.416522     -2.673538
  O       1.947673      3.760256     -2.960181
  C       0.964197      5.906147     -2.478312
  H       1.971375      6.280021     -2.635056
  H       0.287664      6.378989     -3.185727
  H       0.638205      6.153019     -1.471002
>
47
Coordinates from ORCA-job /home/esp/scriptDevelopment/drFrankenstein/11_PCY_CHARMM/04_torsion_scanning/torsion_NH1-CT1-CG321-CG2R61/scans_PCY_conformer_18/PCY_conformer_18_forwards/orca_scan Relaxed Surface Scan Step 2 E -79.900113424330
  H      -0.405165     -2.915896      3.255569
  H       0.161544     -0.083719      4.617446
  H       0.463160      0.330209      1.681697
  H       1.245789      1.849139     -2.914919
  H       0.841131     -1.660505      3.033764
  H       0.622243      1.904657     -0.167027
  H      -0.469461     -2.803369     -1.066085
  H      -0.064592      1.006570     -3.742399
  H      -3.499023      2.050744      4.078375
  H      -0.289212     -1.208983     -2.940654
  H      -4.178706      0.409711      2.348147
  H      -1.016208      4.584033     -2.435001
  H      -1.338761      1.753136      5.249870
  N      -0.239930      3.945664     -2.643944
  C      -0.662116      2.656359     -2.544800
  C      -2.069659      2.571252     -2.188417
  C       0.222079      1.486299     -2.801155
  O      -2.708486      3.619629     -1.953617
  C       0.154900      0.474274     -1.683230
  C       0.376594      0.873883     -0.373052
  C       0.286173     -0.020395      0.678390
  C      -0.037934     -1.348678      0.426592
  C      -0.230636     -1.766462     -0.889987
  C      -0.134788     -0.864582     -1.928798
  O      -0.200786     -2.318737      1.375273
  C      -0.170760     -1.973969      2.748732
  C      -1.158676     -0.911073      3.162572
  C      -0.799163      0.014606      4.136091
  C      -1.640246      1.057020      4.483925
  C      -2.853490      1.224176      3.831835
  C      -3.235351      0.318634      2.863692
  C      -2.408749     -0.760596      2.556520
  N      -2.914867     -1.709406      1.618774
  O      -2.760251     -2.900325      1.842238
  O      -3.530665     -1.277179      0.650688
  C      -4.008743      1.134730     -1.753051
  N      -2.642904      1.352437     -2.161323
  H      -2.070843      0.534153     -2.298803
  H      -4.601568      0.767018     -2.591566
  H      -4.043134      0.401897     -0.946384
  H      -4.416510      2.085699     -1.415401
  C       0.987642      4.490347     -2.908556
  O       1.989097      3.822578     -3.141898
  C       0.973644      5.992555     -2.886819
  H       1.971584      6.363334     -3.099891
  H       0.280684      6.366995     -3.636130
  H       0.654100      6.350152     -1.911285
>
47
Coordinates from ORCA-job /home/esp/scriptDevelopment/drFrankenstein/11_PCY_CHARMM/04_torsion_scanning/torsion_NH1-CT1-CG321-CG2R61/scans_PCY_conformer_18/PCY_conformer_18_forwards/orca_scan Relaxed Surface Scan Step 3 E -79.899517316060
  H      -0.431033     -2.995305      3.221418
  H       0.066946     -0.168848      4.646943
  H       0.388894      0.305848      1.745714
  H       1.329914      1.921888     -2.782479
  H       0.792761     -1.710562      3.044501
  H       0.587149      1.922637     -0.061867
  H      -0.405331     -2.778371     -1.099672
  H       0.066515      1.091640     -3.679832
  H      -3.638785      1.887793      4.113029
  H      -0.184575     -1.140393     -2.932370
  H      -4.267855      0.258506      2.352797
  H      -0.977842      4.649337     -2.566015
  H      -1.480915      1.622490      5.296159
  N      -0.204174      4.002841     -2.759644
  C      -0.591916      2.724757     -2.497373
  C      -1.984850      2.660871     -2.080983
  C       0.302806      1.554737     -2.715322
  O      -2.615933      3.723049     -1.890798
  C       0.194467      0.520109     -1.624601
  C       0.365371      0.893085     -0.298490
  C       0.251479     -0.025019      0.729686
  C      -0.043207     -1.352015      0.438077
  C      -0.187190     -1.742530     -0.893134
  C      -0.067771     -0.817062     -1.908746
  O      -0.220907     -2.345670      1.359176
  C      -0.209885     -2.036283      2.741470
  C      -1.223349     -1.003472      3.169375
  C      -0.892392     -0.085513      4.160020
  C      -1.760380      0.931417      4.517404
  C      -2.972395      1.080387      3.858638
  C      -3.326197      0.181422      2.873729
  C      -2.472156     -0.873133      2.556534
  N      -2.946625     -1.819138      1.599712
  O      -2.771399     -3.009898      1.809621
  O      -3.558415     -1.385732      0.629371
  C      -3.920273      1.267170     -1.515544
  N      -2.556534      1.449210     -1.947169
  H      -2.004632      0.619162     -2.096128
  H      -4.554017      0.977788     -2.355820
  H      -3.962401      0.486881     -0.756561
  H      -4.278550      2.212111     -1.111090
  C       0.996745      4.533457     -3.145381
  O       1.994416      3.857512     -3.371548
  C       0.958756      6.030552     -3.266980
  H       1.932773      6.388961     -3.585719
  H       0.207505      6.324929     -3.995423
  H       0.704368      6.476417     -2.308686
>
47
Coordinates from ORCA-job /home/esp/scriptDevelopment/drFrankenstein/11_PCY_CHARMM/04_torsion_scanning/torsion_NH1-CT1-CG321-CG2R61/scans_PCY_conformer_18/PCY_conformer_18_forwards/orca_scan Relaxed Surface Scan Step 4 E -79.898548674510
  H      -0.486607     -3.088512      3.171341
  H      -0.003334     -0.297503      4.687211
  H       0.338548      0.261748      1.818806
  H       1.426126      2.034337     -2.583160
  H       0.737595     -1.797738      3.047877
  H       0.594428      1.931779      0.067750
  H      -0.379193     -2.731878     -1.141386
  H       0.267262      1.195574     -3.593765
  H      -3.715777      1.755536      4.186602
  H      -0.098558     -1.040004     -2.916430
  H      -4.326590      0.172556      2.378615
  H      -0.972771      4.689900     -2.715893
  H      -1.563974      1.468503      5.375167
  N      -0.187328      4.046309     -2.866146
  C      -0.527577      2.793001     -2.454962
  C      -1.914232      2.738619     -2.014484
  C       0.405518      1.641721     -2.601507
  O      -2.556376      3.804393     -1.892592
  C       0.245712      0.578691     -1.548240
  C       0.377556      0.910655     -0.206353
  C       0.230084     -0.037527      0.789663
  C      -0.058234     -1.354317      0.449183
  C      -0.165057     -1.703505     -0.896967
  C      -0.011554     -0.748531     -1.880439
  O      -0.262745     -2.375481      1.333840
  C      -0.262293     -2.113616      2.726230
  C      -1.280917     -1.096868      3.179334
  C      -0.960084     -0.205257      4.196800
  C      -1.835323      0.797449      4.576312
  C      -3.043931      0.958567      3.914285
  C      -3.387614      0.085350      2.902801
  C      -2.526484     -0.955929      2.562540
  N      -2.988235     -1.877799      1.576263
  O      -2.817615     -3.073861      1.759970
  O      -3.585650     -1.419595      0.608053
  C      -3.841370      1.378802     -1.357140
  N      -2.472637      1.535783     -1.783347
  H      -1.928275      0.697991     -1.916406
  H      -4.485904      1.137126     -2.204958
  H      -3.901961      0.573339     -0.627516
  H      -4.175105      2.318615     -0.920643
  C       0.987796      4.563209     -3.339420
  O       1.999361      3.893316     -3.515581
  C       0.902125      6.035607     -3.626408
  H       1.855202      6.380669     -4.015415
  H       0.120747      6.226799     -4.357516
  H       0.664224      6.579995     -2.715970
>
47
Coordinates from ORCA-job /home/esp/scriptDevelopment/drFrankenstein/11_PCY_CHARMM/04_torsion_scanning/torsion_NH1-CT1-CG321-CG2R61/scans_PCY_conformer_18/PCY_conformer_18_forwards/orca_scan Relaxed Surface Scan Step 5 E -79.897320583720
  H      -0.559163     -3.193360      3.092635
  H      -0.039097     -0.481361      4.736230
  H       0.292876      0.208895      1.898880
  H       1.509758      2.211780     -2.298907
  H       0.680409     -1.912953      3.026621
  H       0.626776      1.942948      0.225224
  H      -0.384397     -2.651249     -1.199553
  H       0.557929      1.331338     -3.467658
  H      -3.733052      1.628523      4.347732
  H      -0.024012     -0.894448     -2.896317
  H      -4.364963      0.139482      2.468202
  H      -1.000248      4.693279     -2.926302
  H      -1.580120      1.265128      5.512908
  N      -0.185892      4.071647     -2.993024
  C      -0.479498      2.858616     -2.444517
  C      -1.873412      2.798506     -2.028223
  C       0.526110      1.759041     -2.457831
  O      -2.552363      3.848900     -2.035541
  C       0.305585      0.661992     -1.454259
  C       0.401957      0.937718     -0.096449
  C       0.209912     -0.046963      0.855811
  C      -0.087713     -1.344351      0.454173
  C      -0.162364     -1.637044     -0.907745
  C       0.036535     -0.646625     -1.847246
  O      -0.330006     -2.397479      1.289987
  C      -0.323827     -2.201455      2.693211
  C      -1.329517     -1.195662      3.196809
  C      -0.996421     -0.356539      4.254246
  C      -1.860533      0.635439      4.684073
  C      -3.069772      0.839236      4.035020
  C      -3.425227      0.018620      2.984286
  C      -2.575339     -1.013456      2.591780
  N      -3.047917     -1.882304      1.563606
  O      -2.893223     -3.088074      1.691485
  O      -3.638360     -1.371505      0.617245
  C      -3.784979      1.464063     -1.291305
  N      -2.401309      1.612778     -1.670901
  H      -1.843938      0.775756     -1.740593
  H      -4.403697      1.220972     -2.158306
  H      -3.870560      0.662291     -0.561277
  H      -4.132404      2.406574     -0.871464
  C       0.975775      4.579766     -3.506367
  O       2.014859      3.935612     -3.593750
  C       0.837288      6.006650     -3.956994
  H       1.782093      6.345167     -4.371011
  H       0.060564      6.084239     -4.713418
  H       0.563876      6.637894     -3.115202
>
47
Coordinates from ORCA-job /home/esp/scriptDevelopment/drFrankenstein/11_PCY_CHARMM/04_torsion_scanning/torsion_NH1-CT1-CG321-CG2R61/scans_PCY_conformer_18/PCY_conformer_18_forwards/orca_scan Relaxed Surface Scan Step 6 E -79.896199041970
  H      -0.636185     -3.311891      2.985310
  H      -0.064937     -0.712424      4.789017
  H       0.283148      0.139237      1.999170
  H       1.520161      2.460281     -1.934060
  H       0.629820     -2.055780      2.998545
  H       0.681046      1.956920      0.432709
  H      -0.411480     -2.524760     -1.265785
  H       0.880193      1.523310     -3.254937
  H      -3.714724      1.490949      4.520234
  H       0.015302     -0.682905     -2.854991
  H      -4.370969      0.129184      2.554414
  H      -1.038282      4.662911     -3.170751
  H      -1.572673      1.015970      5.665173
  N      -0.192401      4.082914     -3.120649
  C      -0.457286      2.928850     -2.443630
  C      -1.865194      2.853704     -2.083098
  C       0.626304      1.920440     -2.263899
  O      -2.590940      3.854125     -2.278807
  C       0.356930      0.781256     -1.322413
  C       0.438048      0.977831      0.050100
  C       0.209477     -0.054961      0.942205
  C      -0.110294     -1.320437      0.463711
  C      -0.172307     -1.533824     -0.913870
  C       0.064339     -0.497356     -1.792665
  O      -0.385458     -2.413888      1.234443
  C      -0.379226     -2.302759      2.646990
  C      -1.365379     -1.308210      3.208155
  C      -1.018244     -0.539992      4.313827
  C      -1.863462      0.442108      4.800170
  C      -3.066560      0.708268      4.162389
  C      -3.435543     -0.041298      3.064234
  C      -2.605490     -1.065339      2.612822
  N      -3.091311     -1.861759      1.533440
  O      -2.965557     -3.076495      1.591886
  O      -3.663437     -1.282962      0.614931
  C      -3.762222      1.559665     -1.260142
  N      -2.359502      1.714465     -1.562318
  H      -1.773092      0.896442     -1.507154
  H      -4.332776      1.319998     -2.160867
  H      -3.881133      0.754716     -0.539966
  H      -4.141175      2.497632     -0.856697
  C       0.965763      4.568787     -3.662270
  O       2.030717      3.963681     -3.631554
  C       0.787583      5.915941     -4.303974
  H       1.737152      6.246189     -4.713897
  H       0.051056      5.852725     -5.100982
  H       0.439179      6.636562     -3.568499
>
47
Coordinates from ORCA-job /home/esp/scriptDevelopment/drFrankenstein/11_PCY_CHARMM/04_torsion_scanning/torsion_NH1-CT1-CG321-CG2R61/scans_PCY_conformer_18/PCY_conformer_18_forwards/orca_scan Relaxed Surface Scan Step 7 E -79.896732896830
  H      -0.715804     -3.373207      2.920962
  H      -0.291335     -0.677684      4.723910
  H       0.533335      0.012894      2.095788
  H       1.493847      2.672710     -1.650365
  H       0.549263     -2.127285      3.077881
  H       0.939793      1.910669      0.628824
  H      -0.442209     -2.402136     -1.289051
  H       1.105506      1.691511     -3.034042
  H      -3.938120      1.449738      4.074752
  H      -0.029993     -0.473869     -2.777094
  H      -4.422991     -0.011194      2.128850
  H      -1.119335      4.536602     -3.330115
  H      -1.883602      1.064945      5.398839
  N      -0.243214      4.014436     -3.208202
  C      -0.449551      2.941671     -2.391201
  C      -1.834352      2.893495     -1.945526
  C       0.702499      2.045782     -2.078230
  O      -2.631836      3.758509     -2.373227
  C       0.457108      0.869615     -1.177136
  C       0.629273      0.971372      0.198125
  C       0.395538     -0.107384      1.034505
  C      -0.007192     -1.323699      0.495072
  C      -0.144011     -1.446176     -0.888415
  C       0.088220     -0.364522     -1.710244
  O      -0.293764     -2.450631      1.212888
  C      -0.419964     -2.362436      2.622937
  C      -1.455650     -1.362700      3.074872
  C      -1.205440     -0.540918      4.167035
  C      -2.098873      0.448183      4.541327
  C      -3.252758      0.664232      3.802330
  C      -3.525995     -0.139890      2.714367
  C      -2.648051     -1.166082      2.372990
  N      -3.036958     -2.016563      1.294580
  O      -2.885643     -3.224407      1.411610
  O      -3.556528     -1.490781      0.315664
  C      -3.573946      1.816657     -0.597396
  N      -2.221455      1.937085     -1.081737
  H      -1.548629      1.255908     -0.766886
  H      -4.219920      2.426698     -1.226345
  H      -3.882915      0.772865     -0.639958
  H      -3.640806      2.171205      0.433183
  C       0.873937      4.447621     -3.867099
  O       1.958129      3.881005     -3.801064
  C       0.627288      5.690837     -4.674768
  H       1.550588      5.992481     -5.159770
  H      -0.131902      5.499205     -5.428867
  H       0.277398      6.491650     -4.028554
>
47
Coordinates from ORCA-job /home/esp/scriptDevelopment/drFrankenstein/11_PCY_CHARMM/04_torsion_scanning/torsion_NH1-CT1-CG321-CG2R61/scans_PCY_conformer_18/PCY_conformer_18_forwards/orca_scan Relaxed Surface Scan Step 8 E -79.897380250290
  H      -0.777771     -3.470099      2.765023
  H      -0.288506     -0.883347      4.724588
  H       0.563080     -0.072825      2.163982
  H       1.363655      2.942646     -1.292830
  H       0.513205     -2.263581      3.000598
  H       1.010886      1.910906      0.831348
  H      -0.516348     -2.214028     -1.370249
  H       1.368135      1.961224     -2.731656
  H      -3.899396      1.341499      4.216222
  H      -0.060755     -0.196181     -2.723672
  H      -4.423680     -0.004608      2.198845
  H      -1.144684      4.392416     -3.562152
  H      -1.844422      0.848808      5.503393
  N      -0.242823      3.970058     -3.311898
  C      -0.429533      2.981763     -2.391085
  C      -1.832101      2.886824     -2.011153
  C       0.752465      2.236717     -1.868702
  O      -2.670652      3.576252     -2.633679
  C       0.482840      1.013972     -1.038978
  C       0.669034      1.014487      0.337204
  C       0.412230     -0.114529      1.098541
  C      -0.030151     -1.277456      0.479974
  C      -0.185381     -1.297654     -0.907406
  C       0.071131     -0.168564     -1.653140
  O      -0.339391     -2.444719      1.120199
  C      -0.461224     -2.448222      2.533728
  C      -1.475792     -1.458209      3.050128
  C      -1.203552     -0.700750      4.182597
  C      -2.076471      0.282776      4.615800
  C      -3.230594      0.559173      3.897591
  C      -3.525877     -0.180890      2.770617
  C      -2.669519     -1.203545      2.368949
  N      -3.081344     -1.989490      1.251354
  O      -2.939669     -3.203391      1.298411
  O      -3.610767     -1.406038      0.310592
  C      -3.549038      1.908126     -0.560465
  N      -2.182287      2.098930     -0.977870
  H      -1.473475      1.545868     -0.521222
  H      -4.195655      2.430719     -1.262791
  H      -3.790024      0.844410     -0.554453
  H      -3.696045      2.317671      0.439916
  C       0.881895      4.405102     -3.957415
  O       1.998778      3.946123     -3.750242
  C       0.599896      5.509688     -4.936492
  H       1.527121      5.810579     -5.414411
  H      -0.103370      5.167916     -5.691681
  H       0.164925      6.361496     -4.419961
>
47
Coordinates from ORCA-job /home/esp/scriptDevelopment/drFrankenstein/11_PCY_CHARMM/04_torsion_scanning/torsion_NH1-CT1-CG321-CG2R61/scans_PCY_conformer_18/PCY_conformer_18_forwards/orca_scan Relaxed Surface Scan Step 9 E -79.898446717570
  H      -0.792999     -3.544042      2.605590
  H      -0.270808     -1.107769      4.732285
  H       0.541232     -0.113795      2.215375
  H       1.156411      3.187597     -0.990386
  H       0.508657     -2.363554      2.906288
  H       0.992660      1.946419      1.008309
  H      -0.533599     -2.034103     -1.445042
  H       1.526930      2.253807     -2.418329
  H      -3.857227      1.189177      4.401515
  H      -0.069605      0.062238     -2.672017
  H      -4.407900     -0.007182      2.298294
  H      -1.133806      4.255047     -3.748252
  H      -1.802869      0.582386      5.640243
  N      -0.228362      3.916098     -3.403020
  C      -0.419925      3.032860     -2.382801
  C      -1.834390      2.907103     -2.058499
  C       0.745382      2.433767     -1.673333
  O      -2.675938      3.448800     -2.808792
  C       0.471501      1.165138     -0.915399
  C       0.652034      1.082476      0.458301
  C       0.393505     -0.091052      1.148890
  C      -0.048507     -1.213295      0.459969
  C      -0.201157     -1.148515     -0.926578
  C       0.059326      0.022916     -1.601267
  O      -0.361939     -2.417097      1.026820
  C      -0.471481     -2.511365      2.438043
  C      -1.473521     -1.550693      3.028985
  C      -1.186758     -0.877675      4.210260
  C      -2.045947      0.082770      4.716457
  C      -3.199965      0.422656      4.025676
  C      -3.509840     -0.233631      2.851780
  C      -2.668237     -1.236326      2.375140
  N      -3.097107     -1.939546      1.209975
  O      -2.964930     -3.154578      1.170977
  O      -3.630984     -1.288213      0.317653
  C      -3.561462      2.021428     -0.560849
  N      -2.188746      2.262115     -0.931168
  H      -1.473631      1.806943     -0.384159
  H      -4.200429      2.464853     -1.322074
  H      -3.752291      0.948561     -0.500553
  H      -3.772844      2.481596      0.404592
  C       0.905191      4.319380     -4.054462
  O       2.029933      3.936721     -3.753455
  C       0.623465      5.288727     -5.167466
  H       1.558590      5.573342     -5.640017
  H      -0.030969      4.831140     -5.905073
  H       0.132340      6.174391     -4.772427
>
47
Coordinates from ORCA-job /home/esp/scriptDevelopment/drFrankenstein/11_PCY_CHARMM/04_torsion_scanning/torsion_NH1-CT1-CG321-CG2R61/scans_PCY_conformer_18/PCY_conformer_18_forwards/orca_scan Relaxed Surface Scan Step 10 E -79.899554091950
  H      -0.775878     -3.589732      2.459933
  H      -0.246455     -1.309843      4.728032
  H       0.508149     -0.124221      2.244034
  H       0.945369      3.376505     -0.769357
  H       0.525044     -2.422275      2.810798
  H       0.940933      1.995897      1.139784
  H      -0.520600     -1.880065     -1.511016
  H       1.582500      2.522873     -2.159327
  H      -3.825839      1.016854      4.576946
  H      -0.071609      0.276719     -2.633784
  H      -4.388184     -0.024063      2.395493
  H      -1.109032      4.129365     -3.884880
  H      -1.769116      0.315732      5.761083
  N      -0.211291      3.861181     -3.465378
  C      -0.425919      3.100012     -2.356397
  C      -1.847805      2.959553     -2.076410
  C       0.701881      2.611355     -1.516191
  O      -2.676064      3.388957     -2.909099
  C       0.443790      1.300941     -0.822960
  C       0.614714      1.155308      0.546398
  C       0.367944     -0.053001      1.178587
  C      -0.056921     -1.145944      0.434221
  C      -0.200801     -1.016858     -0.948678
  C       0.050171      0.188238     -1.564918
  O      -0.363709     -2.378046      0.940720
  C      -0.459656     -2.548070      2.345436
  C      -1.457427     -1.626721      3.002654
  C      -1.163857     -1.040281      4.227939
  C      -2.017484     -0.115616      4.804875
  C      -3.172844      0.276856      4.144778
  C      -3.489248     -0.292838      2.928260
  C      -2.653389     -1.262288      2.378042
  N      -3.091089     -1.879120      1.168040
  O      -2.965963     -3.088568      1.042908
  O      -3.624876     -1.163370      0.326940
  C      -3.596727      2.148654     -0.562625
  N      -2.221543      2.424853     -0.897826
  H      -1.512443      2.040389     -0.291833
  H      -4.223295      2.530001     -1.366637
  H      -3.753052      1.073187     -0.457570
  H      -3.858389      2.646137      0.370941
  C       0.937082      4.222496     -4.115378
  O       2.059111      3.919369     -3.725382
  C       0.674906      5.037475     -5.349996
  H       1.620921      5.305258     -5.810501
  H       0.078200      4.464209     -6.055209
  H       0.128769      5.940564     -5.089488
>
47
Coordinates from ORCA-job /home/esp/scriptDevelopment/drFrankenstein/11_PCY_CHARMM/04_torsion_scanning/torsion_NH1-CT1-CG321-CG2R61/scans_PCY_conformer_18/PCY_conformer_18_forwards/orca_scan Relaxed Surface Scan Step 11 E -79.900377969690
  H      -0.742593     -3.612419      2.337336
  H      -0.247962     -1.457587      4.709055
  H       0.484117     -0.118996      2.264187
  H       0.772485      3.517330     -0.603653
  H       0.547944     -2.451502      2.743096
  H       0.879050      2.049473      1.243203
  H      -0.458479     -1.758892     -1.565184
  H       1.581943      2.748161     -1.960357
  H      -3.826398      0.874595      4.649428
  H      -0.043292      0.445972     -2.603503
  H      -4.364219     -0.043124      2.407592
  H      -1.103243      4.027001     -3.947295
  H      -1.781934      0.107909      5.814847
  N      -0.212610      3.805087     -3.487614
  C      -0.446646      3.176413     -2.303331
  C      -1.870922      3.040722     -2.038321
  C       0.650804      2.761472     -1.387502
  O      -2.691646      3.401295     -2.909737
  C       0.424236      1.414943     -0.749951
  C       0.580387      1.223682      0.615445
  C       0.355449     -0.012143      1.200188
  C      -0.036263     -1.086162      0.411393
  C      -0.164543     -0.910195     -0.967677
  C       0.066373      0.321992     -1.536706
  O      -0.325315     -2.341273      0.869672
  C      -0.432703     -2.564947      2.265745
  C      -1.439965     -1.678574      2.955883
  C      -1.160233     -1.160706      4.215162
  C      -2.020040     -0.269340      4.833490
  C      -3.168441      0.159677      4.183918
  C      -3.471071     -0.341419      2.934346
  C      -2.629153     -1.279237      2.339777
  N      -3.055438     -1.826169      1.092649
  O      -2.924434     -3.025314      0.898023
  O      -3.585694     -1.064423      0.290976
  C      -3.627265      2.284765     -0.505873
  N      -2.253106      2.579280     -0.830693
  H      -1.547636      2.220522     -0.205001
  H      -4.252099      2.655320     -1.316257
  H      -3.772005      1.207316     -0.400703
  H      -3.901306      2.781097      0.424221
  C       0.946102      4.094921     -4.155308
  O       2.062306      3.843926     -3.714404
  C       0.703977      4.759741     -5.480628
  H       1.657342      4.964889     -5.957922
  H       0.110250      4.111624     -6.120463
  H       0.162868      5.691317     -5.335549
>
47
Coordinates from ORCA-job /home/esp/scriptDevelopment/drFrankenstein/11_PCY_CHARMM/04_torsion_scanning/torsion_NH1-CT1-CG321-CG2R61/scans_PCY_conformer_18/PCY_conformer_18_forwards/orca_scan Relaxed Surface Scan Step 12 E -79.900772201910
  H      -0.692896     -3.620814      2.220133
  H      -0.256350     -1.611221      4.691106
  H       0.428589     -0.088295      2.277931
  H       0.631807      3.635601     -0.484483
  H       0.578512     -2.458915      2.679855
  H       0.782016      2.117700      1.323844
  H      -0.351649     -1.654908     -1.617951
  H       1.559142      2.941741     -1.813074
  H      -3.842305      0.709626      4.725099
  H       0.027906      0.586344     -2.588384
  H      -4.341844     -0.065036      2.421564
  H      -1.103341      3.918583     -3.993360
  H      -1.812091     -0.123845      5.870445
  N      -0.219807      3.737461     -3.503323
  C      -0.472248      3.254449     -2.256968
  C      -1.898119      3.134024     -1.998440
  C       0.600770      2.895171     -1.290212
  O      -2.713128      3.438377     -2.895813
  C       0.409646      1.520696     -0.697564
  C       0.528932      1.299357      0.666804
  C       0.327819      0.042347      1.213433
  C      -0.007870     -1.021841      0.386364
  C      -0.100375     -0.813781     -0.990998
  C       0.108906      0.439198     -1.521980
  O      -0.274450     -2.295864      0.803312
  C      -0.396413     -2.567327      2.189162
  C      -1.419926     -1.723929      2.908623
  C      -1.162075     -1.286124      4.202997
  C      -2.034133     -0.438370      4.863555
  C      -3.174422      0.027911      4.225210
  C      -3.455546     -0.393485      2.941916
  C      -2.601106     -1.289041      2.301139
  N      -3.008479     -1.754097      1.015202
  O      -2.865959     -2.936122      0.741836
  O      -3.534426     -0.943462      0.260082
  C      -3.659675      2.442066     -0.443847
  N      -2.285856      2.739115     -0.768261
  H      -1.583379      2.402077     -0.127521
  H      -4.283161      2.796974     -1.262316
  H      -3.800003      1.365189     -0.325319
  H      -3.939116      2.950523      0.477690
  C       0.948367      3.953353     -4.182811
  O       2.058274      3.751353     -3.702677
  C       0.724242      4.468970     -5.576048
  H       1.683974      4.622357     -6.059952
  H       0.139276      3.754021     -6.149366
  H       0.180948      5.409909     -5.540636
>
47
Coordinates from ORCA-job /home/esp/scriptDevelopment/drFrankenstein/11_PCY_CHARMM/04_torsion_scanning/torsion_NH1-CT1-CG321-CG2R61/scans_PCY_conformer_18/PCY_conformer_18_forwards/orca_scan Relaxed Surface Scan Step 13 E -79.900700759340
  H      -0.642937     -3.622737      2.115204
  H      -0.283419     -1.745748      4.663865
  H       0.386210     -0.062184      2.287554
  H       0.508221      3.730301     -0.383106
  H       0.607719     -2.464187      2.634868
  H       0.688120      2.175079      1.392481
  H      -0.217058     -1.567467     -1.663567