
                                 *****************
                                 * O   R   C   A *
                                 *****************

                                            #,                                       
                                            ###                                      
                                            ####                                     
                                            #####                                    
                                            ######                                   
                                           ########,                                 
                                     ,,################,,,,,                         
                               ,,#################################,,                 
                          ,,##########################################,,             
                       ,#########################################, ''#####,          
                    ,#############################################,,   '####,        
                  ,##################################################,,,,####,       
                ,###########''''           ''''###############################       
              ,#####''   ,,,,##########,,,,          '''####'''          '####       
            ,##' ,,,,###########################,,,                        '##       
           ' ,,###''''                  '''############,,,                           
         ,,##''                                '''############,,,,        ,,,,,,###''
      ,#''                                            '''#######################'''  
     '                                                          ''''####''''         
             ,#######,   #######,   ,#######,      ##                                
            ,#'     '#,  ##    ##  ,#'     '#,    #''#        ,####,    ,#,          
            ##       ##  ##   ,#'  ##            #'  '#       #'       ,# #          
            ##       ##  #######   ##           ,######,      #####,      #          
            '#,     ,#'  ##    ##  '#,     ,#' ,#      #,     #,   #      #          
             '#######'   ##     ##  '#######'  #'      '#     '####' #    #          



                #########################################################
                #                        -***-                          #
                #          Department of theory and spectroscopy        #
                #                                                       #
                #                      Frank Neese                      #
                #                                                       #
                #     Directorship, Architecture, Infrastructure        #
                #                    SHARK, DRIVERS                     #
                #        Core code/Algorithms in most modules           #
                #                                                       #
                #        Max Planck Institute fuer Kohlenforschung      #
                #                Kaiser Wilhelm Platz 1                 #
                #                 D-45470 Muelheim/Ruhr                 #
                #                      Germany                          #
                #                                                       #
                #                  All rights reserved                  #
                #                        -***-                          #
                #########################################################


                         Program Version 6.1.0  -  RELEASE   -
                                (GIT: $679e74b$)
                          ($2025-06-10 18:02:51 +0200$)


 With contributions from (in alphabetic order):
[Max-Planck-Institut fuer Kohlenforschung]                               
  Daniel Aravena         : Magnetic Suceptibility                        
  Michael Atanasov       : Ab Initio Ligand Field Theory (pilot matlab implementation)
  Alexander A. Auer      : GIAO ZORA, VPT2 properties, NMR spectrum      
  Ute Becker             : All parallelization in ORCA, NUMFREQ, NUMCALC 
  Giovanni Bistoni       : ED, misc. LED, open-shell LED, HFLD           
  Dmytro Bykov           : pre 5.0 version of the SCF Hessian            
  Marcos Casanova-Páez   : Triplet and SCS-CIS(D). UHF-(DLPNO)-IP/EA/STEOM-CCSD. UHF-CVS-IP/STEOM-CCSD   
  Vijay G. Chilkuri      : MRCI spin determinant printing, contributions to CSF-ICE 
  Pauline Colinet        : FMM embedding                                 
  Dipayan Datta          : RHF DLPNO-CCSD density                        
  Achintya Kumar Dutta   : EOM-CC, STEOM-CC                              
  Nicolas Foglia         : Exact transition moments, OPA infrastructure, MCD improvements    
  Dmitry Ganyushin       : Spin-Orbit,Spin-Spin,Magnetic field MRCI      
  Miquel Garcia-Rates    : C-PCM and meta-GGA Hessian, CCSD/C-PCM, Gaussian charge scheme 
  Tiago L. C. Gouveia    : GS-ROHF, GS-ROCIS                             
  Yang Guo               : DLPNO-NEVPT2, F12-NEVPT2, CIM, IAO-localization        
  Andreas Hansen         : Spin unrestricted coupled pair/coupled cluster methods 
  Ingolf Harden          : AUTO-CI MPn and infrastructure                
  Benjamin Helmich-Paris : MC-RPA, TRAH-(SCF,CASSCF), AVAS, COSX integrals, SCF dyn. polar., MC-PDFT, srDFT 
  Lee Huntington         : MR-EOM, pCC                                   
  Robert Izsak           : Overlap fitted RIJCOSX, COSX-SCS-MP3, EOM     
  Riya Kayal             : Wick's Theorem for AUTO-CI, AUTO-CI UHF-CCSDT 
  Emily Kempfer          : AUTO-CI RHF CISDT and CCSDT, approximate NEVPT4
  Christian Kollmar      : KDIIS, OOCD, Brueckner-CCSD(T), CCSD density, CASPT2, CASPT2-K, improved NEVPT2 
  Axel Koslowski         : Symmetry handling                             
  Simone Kossmann        : meta-GGA functionals, TD-DFT gradient, OOMP2, (MP2 Hessian; deprecated post 5.0) 
  Lucas Lang             : DCDCAS, Hyperfine gauge corrections, ICE-SOC+SSC
  Marvin Lechner         : AUTO-CI (C++ implementation), FIC-MRCC        
  Spencer Leger          : CASSCF response                               
  Dagmar Lenk            : GEPOL surface, SMD, ORCA-2-JSON               
  Dimitrios Liakos       : Extrapolation schemes; Compound Job, Property file
  Dimitrios Manganas     : Further ROCIS development; embedding schemes. LFT, Crystal Embedding 
  Dimitrios Pantazis     : SARC Basis sets                               
  Anastasios Papadopoulos: AUTO-CI, single reference methods and gradients 
  Taras Petrenko         : pre 6.0 DFT Hessian and TD-DFT gradient,  ECA, NRVS 
  Petra Pikulova         : Analytic Raman intensities                    
  Peter Pinski           : DLPNO-MP2, DLPNO-MP2 Gradient                 
  Shashank Vittal Rao    : ES-AILFT, MagRelax                            
  Christoph Reimann      : Effective Core Potentials                     
  Marius Retegan         : Local ZFS, SOC                                
  Christoph Riplinger    : Optimizer, TS searches, QM/MM, DLPNO-CCSD(T), (RO)-DLPNO pert. Triples 
  Michael Roemelt        : Original ROCIS implementation, recursive CI coupling coefficients
  Masaaki Saitow         : Open-shell DLPNO-CCSD energy and density      
  Barbara Sandhoefer     : DKH picture change effects                    
  Yorick L. A. Schmerwitz: GMF and freeze-and-release deltaSCF, NEB S-IDPP initial path                    
  Kantharuban Sivalingam : CASSCF convergence/infrastructure, NEVPT2, NEVPT3, NEVPT4(SD), FIC-MRCI and CEPA variants
  Bernardo de Souza      : ESD, SOC TD-DFT                               
  Georgi L. Stoychev     : AutoAux, RI-MP2 NMR, DLPNO-MP2 response, X2C  
  Van Anh Tran           : RI-MP2 g-tensors                              
  Willem Van den Heuvel  : Paramagnetic NMR                              
  Zikuan Wang            : NOTCH, Electric field optimization            
  Frank Wennmohs         : Technical directorship and infrastructure     
  Hang Xu                : AUTO-CI-Response properties                   
                                                                         
[FACCTs GmbH]                                                            
  Markus Bursch, Nicolas Foglia, Miquel Garcia-Rates, Ingolf Harden, Hagen Neugebauer, Anastasios Papadopoulos, 
  Christoph Riplinger, Bernardo de Souza, Georgi L. Stoychev                                                    
                                                                 
  APM, various basis sets, CI-OPT, improved COSX, DLPNO-Multilevel,           
  DOCKER, DRACO, updates on ESD, Fragmentator, GOAT, IRC, LR-CPCM, L-BFGS, MBIS, meta-GGA TD-DFT gradient, ML-optimized integration grids, 
  MM, NACMEs, nearIR, NEB, NEB-TS, NL-DFT gradient (VV10), 2- and 3-layer-ONIOM, interface openCOSMO-RS, QMMM,   
  Crystal-QMMM, RESP, rigid body optimization, SF, symmetry and pop. for TD-DFT, various functionals, SOLVATOR                                   
                                                                         
[Other institutions]                                                     
  V. Asgeirsson          : NEB                                           
  Christoph Bannwarth    : sTDA-DFT, sTD-DFT, PBEh-3c, B97-3c, D3        
  Giovanni Bistoni       : ETS/NOCV, ADLD/ADEX, COVALED                  
  Martin Brehm           : Molecular dynamics                            
  Ronald Cardenas        : ETS/NOCV                                      
  Martina Colucci        : COVALED                                       
  Sebastian Ehlert       : rSCAN, r2SCAN, r2SCAN-3c, D4, dhf basis sets  
  Marvin Friede          : D4 for Fr, Ra, Ac-Lr                          
  Lars Goerigk           : TD-DFT with DH, B97 family of functionals     
  Stefan Grimme          : VdW corrections, initial TS optimization, DFT functionals, gCP, sTDA/sTD-DF 
  Waldemar Hujo          : DFT-NL                                        
  H. Jonsson             : NEB                                           
  Holger Kruse           : gCP                                           
  Marcel Mueller         : wB97X-3c, vDZP basis set                      
  Hagen Neugebauer       : wr2SCAN, Native XTB                           
  Gianluca Regni         : ADLD/ADEX                                     
  Tobias Risthaus        : pre 6.0 range-separated hybrid DFT and stability analysis
  Lukas Wittmann         : regularized MP2, r2SCAN double-hybrids, wr2SCAN        
                                                                         
We gratefully acknowledge several colleagues who have allowed us to      
interface, adapt or use parts of their codes:                            
  Ed Valeev, F. Pavosevic, A. Kumar             : LibInt (2-el integral package), F12 methods 
  Garnet Chan, S. Sharma, J. Yang, R. Olivares  : DMRG                   
  Ulf Ekstrom                                   : XCFun DFT Library      
  Mihaly Kallay                                 : mrcc  (arbitrary order and MRCC methods)
  Frank Weinhold                                : gennbo (NPA and NBO analysis)           
  Simon Mueller                                 : openCOSMO-RS                            
  Christopher J. Cramer and Donald G. Truhlar   : smd solvation model                     
  S Lehtola, MJT Oliveira, MAL Marques          : LibXC Library                           
  Liviu Ungur et al                             : ANISO software                          


 Your calculation uses the libint2 library for the computation of 2-el integrals
 For citations please refer to: http://libint.valeyev.net

 Your ORCA version has been built with support for libXC version: 7.0.0
 For citations please refer to: https://libxc.gitlab.io

 This ORCA versions uses:
   CBLAS   interface :  Fast vector & matrix operations
   LAPACKE interface :  Fast linear algebra routines
   SCALAPACK package :  Parallel linear algebra routines
   Shared memory     :  Shared parallel matrices
   BLAS/LAPACK       :  OpenBLAS 0.3.29  USE64BITINT DYNAMIC_ARCH NO_AFFINITY Haswell SINGLE_THREADED
        Core in use  :  Haswell
   Copyright (c) 2011-2014, The OpenBLAS Project


  ***********************************
  * Starting time: Wed Jul 16 15:48:04 2025
  * Host name:     MONSTER
  * Process ID:    442512
  * Working dir.:  /home/esp/scriptDevelopment/drFrankenstein
  ***********************************



***************************************
The coordinates will be read from file: /home/esp/scriptDevelopment/drFrankenstein/11_PCY_CHARMM/03_GOAT_conformers/PCY_conformer_1.xyz
***************************************


Your calculation utilizes the semiempirical GFN2-xTB method
Please cite in your paper:
Bannwarth, C.; Ehlert S.; Grimme, S. J. Chem. Theory Comput. 2019, 15, 1652.
   

================================================================================

================================================================================
                                        WARNINGS
                       Please study these warnings very carefully!
================================================================================


WARNING: Geometry Optimization
  ===> : Switching off AutoStart
         For restart on a previous wavefunction, please use MOREAD

WARNING: Found dipole moment calculation with XTB calculation
  ===> : Switching off dipole moment calculation


================================================================================
                                       INPUT FILE
================================================================================
NAME = /home/esp/scriptDevelopment/drFrankenstein/11_PCY_CHARMM/04_torsion_scanning/torsion_NH1-CT1-CG321-CG2R61/scans_PCY_conformer_1/PCY_conformer_1_opt/orca_opt.inp
|  1>  # --------------------------------- #
|  2>  #  Geometry Optimisation            #
|  3>  # --------------------------------- #
|  4> ! XTB2 ALPB(water) Opt
|  5> *xyzfile 0 1 /home/esp/scriptDevelopment/drFrankenstein/11_PCY_CHARMM/03_GOAT_conformers/PCY_conformer_1.xyz
|  6> 
|  7> 
|  8>                          ****END OF INPUT****
================================================================================

                       *****************************
                       * Geometry Optimization Run *
                       *****************************

Geometry optimization settings:
Update method            Update   .... BFGS
Choice of coordinates    CoordSys .... (2022) Redundant Internals
Initial Hessian          InHess   .... Almloef's Model
Max. no of cycles        MaxIter  .... 141

Convergence Tolerances:
Energy Change            TolE     ....  5.0000e-06 Eh
Max. Gradient            TolMAXG  ....  3.0000e-04 Eh/bohr
RMS Gradient             TolRMSG  ....  1.0000e-04 Eh/bohr
Max. Displacement        TolMAXD  ....  4.0000e-03 bohr
RMS Displacement         TolRMSD  ....  2.0000e-03 bohr
Strict Convergence                .... False

------------------------------------------------------------------------------
                        ORCA OPTIMIZATION COORDINATE SETUP
------------------------------------------------------------------------------

The optimization will be done in redundant internal coordinates (2022)
Making redundant internal coordinates   ...  (2022 redundants) done
Evaluating the initial hessian          ...  (Almloef) done
Evaluating the coordinates              ...  done
Calculating the B-matrix                .... done
Calculating the G-matrix                .... done
The number of degrees of freedom        ....  227

    -----------------------------------------------------------------
                    Redundant Internal Coordinates


    -----------------------------------------------------------------
         Definition                    Initial Value    Approx d2E/dq
    -----------------------------------------------------------------
      1. B(N  13,H  11)                  1.0304         0.401525   
      2. B(C  14,N  13)                  1.3563         0.633437   
      3. B(C  15,C  14)                  1.4643         0.475610   
      4. B(C  16,H   7)                  1.0963         0.351817   
      5. B(C  16,H   3)                  1.0935         0.355536   
      6. B(C  16,C  14)                  1.4835         0.443194   
      7. B(O  17,C  15)                  1.2390         0.974561   
      8. B(O  17,H  11)                  1.9322         0.014618   
      9. B(C  18,C  16)                  1.5118         0.399441   
     10. B(C  19,H   5)                  1.0799         0.373682   
     11. B(C  19,C  18)                  1.3896         0.625819   
     12. B(C  20,C  19)                  1.3812         0.645300   
     13. B(C  20,H   2)                  1.0794         0.374439   
     14. B(C  21,C  20)                  1.3894         0.626265   
     15. B(C  22,C  21)                  1.3905         0.623763   
     16. B(C  22,H   6)                  1.0799         0.373741   
     17. B(C  23,C  22)                  1.3811         0.645494   
     18. B(C  23,C  18)                  1.3901         0.624455   
     19. B(C  23,H   9)                  1.0797         0.374036   
     20. B(O  24,C  21)                  1.3838         0.572564   
     21. B(C  25,O  24)                  1.4258         0.490669   
     22. B(C  25,H   4)                  1.0946         0.354067   
     23. B(C  25,H   0)                  1.0915         0.358078   
     24. B(C  26,C  25)                  1.5094         0.402931   
     25. B(C  27,C  26)                  1.3898         0.625343   
     26. B(C  27,H   1)                  1.0795         0.374272   
     27. B(C  28,C  27)                  1.3837         0.639330   
     28. B(C  28,H  12)                  1.0792         0.374655   
     29. B(C  29,C  28)                  1.3870         0.631836   
     30. B(C  29,H   8)                  1.0788         0.375268   
     31. B(C  30,C  29)                  1.3787         0.651260   
     32. B(C  30,H  10)                  1.0794         0.374345   
     33. B(C  31,C  30)                  1.3942         0.615147   
     34. B(C  31,C  26)                  1.4011         0.599829   
     35. B(N  32,C  31)                  1.4287         0.485520   
     36. B(O  33,N  32)                  1.2273         0.911080   
     37. B(O  34,N  32)                  1.2214         0.931060   
     38. B(N  36,C  35)                  1.4402         0.465416   
     39. B(N  36,C  15)                  1.3451         0.659883   
     40. B(H  37,O  33)                  2.0181         0.010662   
     41. B(H  37,N  36)                  1.0119         0.429623   
     42. B(H  38,C  35)                  1.0885         0.362126   
     43. B(H  39,C  35)                  1.0919         0.357538   
     44. B(H  40,C  35)                  1.0917         0.357919   
     45. B(C  41,N  13)                  1.3741         0.593285   
     46. B(O  42,C  41)                  1.2143         1.067223   
     47. B(C  43,C  41)                  1.5086         0.404103   
     48. B(H  44,C  43)                  1.0882         0.362529   
     49. B(H  45,C  43)                  1.0882         0.362545   
     50. B(H  46,C  43)                  1.0860         0.365457   
     51. A(H  11,N  13,C  41)          119.2467         0.351512   
     52. A(C  14,N  13,C  41)          132.0000         0.426679   
     53. A(H  11,N  13,C  14)          108.7491         0.355432   
     54. A(N  13,C  14,C  15)          110.8079         0.412862   
     55. A(N  13,C  14,C  16)          123.2022         0.407729   
     56. A(C  15,C  14,C  16)          125.9864         0.390191   
     57. A(O  17,C  15,N  36)          123.4924         0.470338   
     58. A(C  14,C  15,O  17)          118.4806         0.446034   
     59. A(C  14,C  15,N  36)          118.0216         0.415875   
     60. A(H   3,C  16,H   7)          107.6688         0.289200   
     61. A(H   3,C  16,C  14)          108.3986         0.332894   
     62. A(C  14,C  16,C  18)          114.4727         0.378525   
     63. A(H   3,C  16,C  18)          108.8270         0.327223   
     64. A(H   7,C  16,C  14)          109.3993         0.332314   
     65. A(H   7,C  16,C  18)          107.8722         0.326657   
     66. A(C  16,C  18,C  23)          119.0761         0.401888   
     67. A(C  19,C  18,C  23)          118.8540         0.435357   
     68. A(C  16,C  18,C  19)          122.0682         0.402043   
     69. A(C  18,C  19,C  20)          120.6978         0.437941   
     70. A(H   5,C  19,C  18)          119.9528         0.355693   
     71. A(H   5,C  19,C  20)          119.3326         0.357550   
     72. A(H   2,C  20,C  21)          119.5341         0.355858   
     73. A(C  19,C  20,C  21)          119.9494         0.437997   
     74. A(H   2,C  20,C  19)          120.5040         0.357673   
     75. A(C  22,C  21,O  24)          119.7001         0.425577   
     76. A(C  20,C  21,O  24)          120.5635         0.425882   
     77. A(C  20,C  21,C  22)          119.7312         0.435326   
     78. A(C  21,C  22,C  23)          119.8041         0.437705   
     79. A(H   6,C  22,C  23)          120.9001         0.357578   
     80. A(H   6,C  22,C  21)          119.2770         0.355504   
     81. A(C  18,C  23,C  22)          120.8097         0.437792   
     82. A(H   9,C  23,C  22)          119.5646         0.357626   
     83. A(H   9,C  23,C  18)          119.6064         0.355618   
     84. A(C  21,O  24,C  25)          113.1095         0.405159   
     85. A(H   0,C  25,H   4)          109.5300         0.289813   
     86. A(O  24,C  25,C  26)          108.8604         0.383412   
     87. A(H   4,C  25,C  26)          111.8672         0.327469   
     88. A(H   0,C  25,C  26)          110.2135         0.328078   
     89. A(H   4,C  25,O  24)          110.8718         0.336291   
     90. A(H   0,C  25,O  24)          105.2935         0.336922   
     91. A(C  27,C  26,C  31)          117.4813         0.432158   
     92. A(C  25,C  26,C  31)          122.9184         0.399663   
     93. A(C  25,C  26,C  27)          118.9076         0.402606   
     94. A(C  26,C  27,C  28)          121.6873         0.437148   
     95. A(H   1,C  27,C  28)          119.7374         0.357081   
     96. A(H   1,C  27,C  26)          118.5729         0.355742   
     97. A(C  27,C  28,C  29)          120.1029         0.437963   
     98. A(H  12,C  28,C  29)          120.0870         0.356429   
     99. A(H  12,C  28,C  27)          119.8036         0.357143   
    100. A(C  28,C  29,C  30)          119.4903         0.439426   
    101. A(H   8,C  29,C  30)          120.0290         0.358367   
    102. A(H   8,C  29,C  28)          120.4807         0.356528   
    103. A(C  29,C  30,C  31)          120.2552         0.437309   
    104. A(H  10,C  30,C  31)          118.4835         0.354763   
    105. A(H  10,C  30,C  29)          121.2582         0.358217   
    106. A(C  30,C  31,N  32)          116.1703         0.412227   
    107. A(C  26,C  31,N  32)          122.8755         0.410387   
    108. A(C  26,C  31,C  30)          120.9493         0.430884   
    109. A(O  33,N  32,O  34)          123.3626         0.488216   
    110. A(C  31,N  32,O  34)          119.3205         0.438140   
    111. A(C  31,N  32,O  33)          117.2799         0.436430   
    112. A(N  36,C  35,H  38)          108.2414         0.334599   
    113. A(H  39,C  35,H  40)          108.9616         0.290237   
    114. A(H  38,C  35,H  40)          109.8351         0.290818   
    115. A(N  36,C  35,H  40)          109.9984         0.333950   
    116. A(H  38,C  35,H  39)          109.5136         0.290770   
    117. A(N  36,C  35,H  39)          110.2799         0.333891   
    118. A(C  35,N  36,H  37)          115.9998         0.341311   
    119. A(C  15,N  36,H  37)          121.4061         0.362058   
    120. A(C  15,N  36,C  35)          121.9111         0.411599   
    121. A(O  42,C  41,C  43)          124.2299         0.440255   
    122. A(N  13,C  41,C  43)          111.9813         0.396545   
    123. A(N  13,C  41,O  42)          123.7886         0.468998   
    124. A(H  45,C  43,H  46)          109.3413         0.291826   
    125. A(H  44,C  43,H  46)          109.3611         0.291823   
    126. A(C  41,C  43,H  46)          109.3418         0.329342   
    127. A(H  44,C  43,H  45)          108.5058         0.291457   
    128. A(C  41,C  43,H  45)          110.1460         0.328907   
    129. A(C  41,C  43,H  44)          110.1252         0.328905   
    130. D(C  16,C  14,N  13,C  41)      1.5599         0.032602   
    131. D(C  15,C  14,N  13,C  41)   -179.0844         0.032602   
    132. D(C  16,C  14,N  13,H  11)   -179.2151         0.032602   
    133. D(C  15,C  14,N  13,H  11)      0.1407         0.032602   
    134. D(N  36,C  15,C  14,N  13)    178.9888         0.015401   
    135. D(O  17,C  15,C  14,C  16)    179.1386         0.015401   
    136. D(N  36,C  15,C  14,C  16)     -1.6774         0.015401   
    137. D(O  17,C  15,C  14,N  13)     -0.1952         0.015401   
    138. D(H   7,C  16,C  14,C  15)     60.7230         0.014490   
    139. D(C  18,C  16,C  14,N  13)    118.7965         0.014490   
    140. D(H   3,C  16,C  14,C  15)    177.8684         0.014490   
    141. D(H   3,C  16,C  14,N  13)     -2.8759         0.014490   
    142. D(H   7,C  16,C  14,N  13)   -120.0213         0.014490   
    143. D(C  19,C  18,C  16,H   3)    106.7586         0.011842   
    144. D(C  19,C  18,C  16,H   7)   -136.6982         0.011842   
    145. D(C  19,C  18,C  16,C  14)    -14.6789         0.011842   
    146. D(C  23,C  18,C  16,H   7)     43.7785         0.011842   
    147. D(C  23,C  18,C  16,H   3)    -72.7647         0.011842   
    148. D(C  20,C  19,C  18,C  16)    176.7968         0.027132   
    149. D(H   5,C  19,C  18,C  23)    177.8217         0.027132   
    150. D(C  20,C  19,C  18,C  23)     -3.6789         0.027132   
    151. D(H   5,C  19,C  18,C  16)     -1.7026         0.027132   
    152. D(C  21,C  20,C  19,C  18)      0.8993         0.028964   
    153. D(C  21,C  20,C  19,H   5)    179.4079         0.028964   
    154. D(H   2,C  20,C  19,C  18)   -177.8070         0.028964   
    155. D(H   2,C  20,C  19,H   5)      0.7016         0.028964   
    156. D(O  24,C  21,C  20,C  19)   -176.6023         0.027173   
    157. D(O  24,C  21,C  20,H   2)      2.1166         0.027173   
    158. D(C  22,C  21,C  20,C  19)      2.5671         0.027173   
    159. D(C  22,C  21,C  20,H   2)   -178.7140         0.027173   
    160. D(H   6,C  22,C  21,C  20)    178.3654         0.026943   
    161. D(C  23,C  22,C  21,O  24)    175.9789         0.026943   
    162. D(C  23,C  22,C  21,C  20)     -3.1978         0.026943   
    163. D(H   6,C  22,C  21,O  24)     -2.4579         0.026943   
    164. D(C  18,C  23,C  22,C  21)      0.3768         0.028983   
    165. D(C  18,C  23,C  22,H   6)    178.7878         0.028983   
    166. D(H   9,C  23,C  22,C  21)   -178.0148         0.028983   
    167. D(H   9,C  23,C  22,H   6)      0.3962         0.028983   
    168. D(C  22,C  23,C  18,C  19)      3.0391         0.027007   
    169. D(C  22,C  23,C  18,C  16)   -177.4220         0.027007   
    170. D(H   9,C  23,C  18,C  19)   -178.5700         0.027007   
    171. D(H   9,C  23,C  18,C  16)      0.9689         0.027007   
    172. D(C  25,O  24,C  21,C  22)   -102.4321         0.023808   
    173. D(C  25,O  24,C  21,C  20)     76.7376         0.023808   
    174. D(C  26,C  25,O  24,C  21)     72.5131         0.019013   
    175. D(H   4,C  25,O  24,C  21)    -50.9557         0.019013   
    176. D(H   0,C  25,O  24,C  21)   -169.3266         0.019013   
    177. D(C  31,C  26,C  25,H   4)     41.0555         0.012041   
    178. D(C  31,C  26,C  25,H   0)    163.1710         0.012041   
    179. D(C  27,C  26,C  25,O  24)     88.3971         0.012041   
    180. D(C  27,C  26,C  25,H   4)   -148.7299         0.012041   
    181. D(C  27,C  26,C  25,H   0)    -26.6144         0.012041   
    182. D(C  28,C  27,C  26,C  31)     -0.7925         0.027088   
    183. D(C  28,C  27,C  26,C  25)   -171.5382         0.027088   
    184. D(H   1,C  27,C  26,C  31)    178.6392         0.027088   
    185. D(H   1,C  27,C  26,C  25)      7.8935         0.027088   
    186. D(C  29,C  28,C  27,C  26)      1.8079         0.028395   
    187. D(C  29,C  28,C  27,H   1)   -177.6174         0.028395   
    188. D(H  12,C  28,C  27,C  26)   -179.1188         0.028395   
    189. D(H  12,C  28,C  27,H   1)      1.4559         0.028395   
    190. D(C  30,C  29,C  28,H  12)    179.8670         0.027690   
    191. D(H   8,C  29,C  28,C  27)    178.9426         0.027690   
    192. D(H   8,C  29,C  28,H  12)     -0.1282         0.027690   
    193. D(C  30,C  29,C  28,C  27)     -1.0622         0.027690   
    194. D(C  31,C  30,C  29,C  28)     -0.6425         0.029540   
    195. D(C  31,C  30,C  29,H   8)    179.3527         0.029540   
    196. D(H  10,C  30,C  29,C  28)   -179.9867         0.029540   
    197. D(H  10,C  30,C  29,H   8)      0.0085         0.029540   
    198. D(N  32,C  31,C  30,C  29)   -177.5552         0.026160   
    199. D(N  32,C  31,C  30,H  10)      1.8070         0.026160   
    200. D(C  26,C  31,C  30,C  29)      1.6626         0.026160   
    201. D(C  26,C  31,C  30,H  10)   -178.9753         0.026160   
    202. D(N  32,C  31,C  26,C  27)    178.2294         0.024803   
    203. D(N  32,C  31,C  26,C  25)    -11.4250         0.024803   
    204. D(C  30,C  31,C  26,C  27)     -0.9347         0.024803   
    205. D(C  30,C  31,C  26,C  25)    169.4109         0.024803   
    206. D(O  34,N  32,C  31,C  30)    143.4036         0.018606   
    207. D(O  34,N  32,C  31,C  26)    -35.7975         0.018606   
    208. D(O  33,N  32,C  31,C  30)    -34.4571         0.018606   
    209. D(O  33,N  32,C  31,C  26)    146.3417         0.018606   
    210. D(H  37,N  36,C  35,H  39)    -68.6661         0.018499   
    211. D(H  37,N  36,C  35,H  38)    171.5497         0.018499   
    212. D(C  15,N  36,C  35,H  40)   -119.1093         0.018499   
    213. D(C  15,N  36,C  35,H  39)    120.6843         0.018499   
    214. D(C  15,N  36,C  35,H  38)      0.9001         0.018499   
    215. D(H  37,N  36,C  15,O  17)   -175.5626         0.035632   
    216. D(H  37,N  36,C  15,C  14)      5.2975         0.035632   
    217. D(C  35,N  36,C  15,O  17)     -5.4141         0.035632   
    218. D(C  35,N  36,C  15,C  14)    175.4460         0.035632   
    219. D(C  43,C  41,N  13,C  14)   -179.2791         0.028317   
    220. D(C  43,C  41,N  13,H  11)      1.5620         0.028317   
    221. D(O  42,C  41,N  13,C  14)      0.8753         0.028317   
    222. D(O  42,C  41,N  13,H  11)   -178.2836         0.028317   
    223. D(H  46,C  43,C  41,N  13)    179.9456         0.012108   
    224. D(H  45,C  43,C  41,O  42)   -120.3853         0.012108   
    225. D(H  45,C  43,C  41,N  13)     59.7699         0.012108   
    226. D(H  44,C  43,C  41,O  42)    119.9776         0.012108   
    227. D(H  44,C  43,C  41,N  13)    -59.8672         0.012108   
    -----------------------------------------------------------------

Number of atoms                         .... 47
Number of degrees of freedom            .... 227


         *************************************************************
         *                GEOMETRY OPTIMIZATION CYCLE   1            *
         *************************************************************
---------------------------------
CARTESIAN COORDINATES (ANGSTROEM)
---------------------------------
  H    -0.383920   -0.150830    4.761160
  H    -0.794730   -2.461390    4.785160
  H     0.352620    2.406150    2.099010
  H     0.636910    1.273520   -3.010390
  H    -1.156610    0.942000    3.579170
  H     0.004400    3.056880   -0.245760
  H     0.539570   -1.695640    0.945330
  H    -1.015960    0.681120   -2.804410
  H    -3.284450   -4.353740    1.877020
  H     0.148820   -1.049890   -1.404890
  H    -3.501560   -2.189610    0.688160
  H    -0.666880    4.581910   -3.359140
  H    -1.945170   -4.466070    3.955540
  N    -0.130710    3.702270   -3.379040
  C    -0.781320    2.778110   -2.629320
  C    -2.007620    3.340120   -2.059750
  C    -0.278130    1.397650   -2.424750
  O    -2.288260    4.520680   -2.309960
  C     0.013050    1.044290   -0.983980
  C     0.110670    2.012560    0.007880
  C     0.312460    1.653610    1.326280
  C     0.438550    0.313010    1.668650
  C     0.414310   -0.658010    0.673720
  C     0.198970   -0.289700   -0.639860
  O     0.570920   -0.065540    2.993030
  C    -0.659270   -0.023920    3.712580
  C    -1.528820   -1.171350    3.259150
  C    -1.409750   -2.398660    3.900220
  C    -2.047100   -3.531470    3.425600
  C    -2.798980   -3.470530    2.261730
  C    -2.923250   -2.269560    1.596100
  C    -2.308960   -1.122270    2.096370
  N    -2.539190    0.084610    1.367340
  O    -2.645420   -0.006310    0.148010
  O    -2.659610    1.137010    1.975460
  C    -3.950540    3.027680   -0.624860
  N    -2.778980    2.537860   -1.304270
  H    -2.487520    1.598800   -1.064990
  H    -4.062090    4.085160   -0.857380
  H    -4.836930    2.485080   -0.959880
  H    -3.839810    2.895100    0.453040
  C     1.030640    3.640340   -4.110850
  O     1.709870    2.639350   -4.216190
  C     1.355530    4.959290   -4.767160
  H     0.550870    5.251480   -5.438920
  H     1.474030    5.734270   -4.012540
  H     2.278360    4.862600   -5.331420

----------------------------
CARTESIAN COORDINATES (A.U.)
----------------------------
  NO LB    ZA    FRAG    MASS        X           Y           Z
   0 H   1.0000    0     1.008   -0.725504   -0.285027    8.997288
   1 H   1.0000    0     1.008   -1.501822   -4.651353    9.042642
   2 H   1.0000    0     1.008    0.666355    4.546965    3.966554
   3 H   1.0000    0     1.008    1.203585    2.406604   -5.688813
   4 H   1.0000    0     1.008   -2.185676    1.780122    6.763651
   5 H   1.0000    0     1.008    0.008315    5.776666   -0.464419
   6 H   1.0000    0     1.008    1.019640   -3.204295    1.786415
   7 H   1.0000    0     1.008   -1.919886    1.287130   -5.299567
   8 H   1.0000    0     1.008   -6.206711   -8.227376    3.547054
   9 H   1.0000    0     1.008    0.281229   -1.984005   -2.654857
  10 H   1.0000    0     1.008   -6.616989   -4.137763    1.300434
  11 H   1.0000    0     1.008   -1.260221    8.658555   -6.347855
  12 H   1.0000    0     1.008   -3.675839   -8.439649    7.474887
  13 N   7.0000    0    14.007   -0.247006    6.996276   -6.385460
  14 C   6.0000    0    12.011   -1.476481    5.249867   -4.968695
  15 C   6.0000    0    12.011   -3.793852    6.311912   -3.892363
  16 C   6.0000    0    12.011   -0.525590    2.641176   -4.582113
  17 O   8.0000    0    15.999   -4.324185    8.542847   -4.365192
  18 C   6.0000    0    12.011    0.024661    1.973422   -1.859453
  19 C   6.0000    0    12.011    0.209136    3.803187    0.014891
  20 C   6.0000    0    12.011    0.590464    3.124870    2.506306
  21 C   6.0000    0    12.011    0.828739    0.591503    3.153292
  22 C   6.0000    0    12.011    0.782932   -1.243459    1.273146
  23 C   6.0000    0    12.011    0.375999   -0.547454   -1.209160
  24 O   8.0000    0    15.999    1.078882   -0.123853    5.656007
  25 C   6.0000    0    12.011   -1.245840   -0.045202    7.015759
  26 C   6.0000    0    12.011   -2.889051   -2.213531    6.158901
  27 C   6.0000    0    12.011   -2.664041   -4.532810    7.370348
  28 C   6.0000    0    12.011   -3.868458   -6.673511    6.473446
  29 C   6.0000    0    12.011   -5.289306   -6.558351    4.274050
  30 C   6.0000    0    12.011   -5.524142   -4.288847    3.016192
  31 C   6.0000    0    12.011   -4.363302   -2.120783    3.961565
  32 N   7.0000    0    14.007   -4.798374    0.159890    2.583898
  33 O   8.0000    0    15.999   -4.999119   -0.011924    0.279698
  34 O   8.0000    0    15.999   -5.025935    2.148638    3.733078
  35 C   6.0000    0    12.011   -7.465439    5.721486   -1.180814
  36 N   7.0000    0    14.007   -5.251511    4.795860   -2.464713
  37 H   1.0000    0     1.008   -4.700732    3.021294   -2.012539
  38 H   1.0000    0     1.008   -7.676238    7.719834   -1.620213
  39 H   1.0000    0     1.008   -9.140473    4.696121   -1.813910
  40 H   1.0000    0     1.008   -7.256189    5.470946    0.856122
  41 C   6.0000    0    12.011    1.947627    6.879246   -7.768381
  42 O   8.0000    0    15.999    3.231186    4.987649   -7.967444
  43 C   6.0000    0    12.011    2.561580    9.371700   -9.008627
  44 H   1.0000    0     1.008    1.040993    9.923859  -10.278069
  45 H   1.0000    0     1.008    2.785513   10.836200   -7.582602
  46 H   1.0000    0     1.008    4.305476    9.188982  -10.074924

      -----------------------------------------------------------      
     |                   =====================                   |     
     |                           x T B                           |     
     |                   =====================                   |     
     |                         S. Grimme                         |     
     |          Mulliken Center for Theoretical Chemistry        |     
     |                    University of Bonn                     |     
      -----------------------------------------------------------      

   * xtb version 6.7.1 (edcfbbe) compiled by 'albert@albert-system' on 2024-07-22

   xtb is free software: you can redistribute it and/or modify it under
   the terms of the GNU Lesser General Public License as published by
   the Free Software Foundation, either version 3 of the License, or
   (at your option) any later version.
   
   xtb is distributed in the hope that it will be useful,
   but WITHOUT ANY WARRANTY; without even the implied warranty of
   MERCHANTABILITY or FITNESS FOR A PARTICULAR PURPOSE.  See the
   GNU Lesser General Public License for more details.
   
   Cite this work as:
   * C. Bannwarth, E. Caldeweyher, S. Ehlert, A. Hansen, P. Pracht,
     J. Seibert, S. Spicher, S. Grimme, WIREs Comput. Mol. Sci., 2020, 11,
     e01493. DOI: 10.1002/wcms.1493
   
   for GFN2-xTB:
   * C. Bannwarth, S. Ehlert and S. Grimme., J. Chem. Theory Comput., 2019,
     15, 1652-1671. DOI: 10.1021/acs.jctc.8b01176
   for GFN1-xTB:
   * S. Grimme, C. Bannwarth, P. Shushkov, J. Chem. Theory Comput., 2017,
     13, 1989-2009. DOI: 10.1021/acs.jctc.7b00118
   for GFN0-xTB:
   * P. Pracht, E. Caldeweyher, S. Ehlert, S. Grimme, ChemRxiv, 2019, preprint.
     DOI: 10.26434/chemrxiv.8326202.v1
   for GFN-FF:
   * S. Spicher and S. Grimme, Angew. Chem. Int. Ed., 2020, 59, 15665-15673.
     DOI: 10.1002/anie.202004239
   
   for ALPB and GBSA implicit solvation:
   * S. Ehlert, M. Stahn, S. Spicher, S. Grimme, J. Chem. Theory Comput.,
     2021, 17, 4250-4261. DOI: 10.1021/acs.jctc.1c00471
   
   for ddCOSMO and CPCM-X implicit solvation:
   * M. Stahn, S. Ehlert, S. Grimme, J. Phys. Chem. A,
     2023, XX, XXXX-XXXX. DOI: 10.1021/acs.jpca.3c04382
   
   for DFT-D4:
   * E. Caldeweyher, C. Bannwarth and S. Grimme, J. Chem. Phys., 2017,
     147, 034112. DOI: 10.1063/1.4993215
   * E. Caldeweyher, S. Ehlert, A. Hansen, H. Neugebauer, S. Spicher,
     C. Bannwarth and S. Grimme, J. Chem. Phys., 2019, 150, 154122.
     DOI: 10.1063/1.5090222
   * E. Caldeweyher, J.-M. Mewes, S. Ehlert and S. Grimme, Phys. Chem. Chem. Phys.
     2020, 22, 8499-8512. DOI: 10.1039/D0CP00502A
   
   for sTDA-xTB:
   * S. Grimme and C. Bannwarth, J. Chem. Phys., 2016, 145, 054103.
     DOI: 10.1063/1.4959605
   
   in the mass-spec context:
   * V. Asgeirsson, C. Bauer and S. Grimme, Chem. Sci., 2017, 8, 4879.
     DOI: 10.1039/c7sc00601b
   * J. Koopman and S. Grimme, ACS Omega 2019, 4, 12, 15120-15133.
     DOI: 10.1021/acsomega.9b02011
   
   for metadynamics refer to:
   * S. Grimme, J. Chem. Theory Comput., 2019, 155, 2847-2862
     DOI: 10.1021/acs.jctc.9b00143
   
   for SPH calculations refer to:
   * S. Spicher and S. Grimme, J. Chem. Theory Comput., 2021, 17, 1701-1714
     DOI: 10.1021/acs.jctc.0c01306
   
   for ONIOM refer to:
   * C. Plett, A. Katbashev, S. Ehlert, S. Grimme, M. Bursch,
     Phys. Chem. Chem. Phys., 2023, 25, 17860-17868. DOI: 10.1039/D3CP02178E
   
   for DIPRO refer to:
   * J. Kohn, N. Gildemeister, S. Grimme, D. Fazzi, A. Hansen,
     J. Chem. Phys., 2023, just accepted.
   
   for PTB refer to:
   * S. Grimme, M. Mueller, A. Hansen, J. Chem. Phys., 2023, 158, 124111.
     DOI: 10.1063/5.0137838
   
   with help from (in alphabetical order)
   P. Atkinson, C. Bannwarth, F. Bohle, G. Brandenburg, E. Caldeweyher
   M. Checinski, S. Dohm, S. Ehlert, S. Ehrlich, I. Gerasimov, C. Hölzer
   A. Katbashev, J. Kohn, J. Koopman, C. Lavigne, S. Lehtola, F. März, M. Müller,
   F. Musil, H. Neugebauer, J. Pisarek, C. Plett, P. Pracht, F. Pultar,
   J. Seibert, P. Shushkov, S. Spicher, M. Stahn, M. Steiner, T. Strunk,
   J. Stückrath, T. Rose, and J. Unsleber
   
 * started run on 2025/07/16 at 15:48:04.133     
   ID    Z sym.   atoms
    1    1 H      1-13, 38-41, 45-47
    2    7 N      14, 33, 37
    3    6 C      15-17, 19-24, 26-32, 36, 42, 44
    4    8 O      18, 25, 34, 35, 43

           -------------------------------------------------
          |                Calculation Setup                |
           -------------------------------------------------

          program call               : /home/esp/bin/orca_6_1_0/otool_xtb /home/esp/scriptDevelopment/drFrankenstein/11_PCY_CHARMM/04_torsion_scanning/torsion_NH1-CT1-CG321-CG2R61/scans_PCY_conformer_1/PCY_conformer_1_opt/orca_opt_XTB.xyz --grad -c 0 -u 0 -P 1 --namespace /home/esp/scriptDevelopment/drFrankenstein/11_PCY_CHARMM/04_torsion_scanning/torsion_NH1-CT1-CG321-CG2R61/scans_PCY_conformer_1/PCY_conformer_1_opt/orca_opt --input /home/esp/scriptDevelopment/drFrankenstein/11_PCY_CHARMM/04_torsion_scanning/torsion_NH1-CT1-CG321-CG2R61/scans_PCY_conformer_1/PCY_conformer_1_opt/orca_opt_XTB.input.tmp --alpb WATER --acc 0.200000
          calculation namespace      : /home/esp/scriptDevelopment/drFrankenstein/11_PCY_CHARMM/04_torsion_scanning/torsion_NH1-CT1-CG321-CG2R61/scans_PCY_conformer_1/PCY_conformer_1_opt/orca_opt
          coordinate file            : /home/esp/scriptDevelopment/drFrankenstein/11_PCY_CHARMM/04_torsion_scanning/torsion_NH1-CT1-CG321-CG2R61/scans_PCY_conformer_1/PCY_conformer_1_opt/orca_opt_XTB.xyz
          omp threads                :                     1


           -------------------------------------------------
          |                 G F N 2 - x T B                 |
           -------------------------------------------------

        Reference                      10.1021/acs.jctc.8b01176
      * Hamiltonian:
        H0-scaling (s, p, d)           1.850000    2.230000    2.230000
        zeta-weighting                 0.500000
      * Dispersion:
        s8                             2.700000
        a1                             0.520000
        a2                             5.000000
        s9                             5.000000
      * Repulsion:
        kExp                           1.500000    1.000000
        rExp                           1.000000
      * Coulomb:
        alpha                          2.000000
        third order                    shell-resolved
        anisotropic                    true
        a3                             3.000000
        a5                             4.000000
        cn-shift                       1.200000
        cn-exp                         4.000000
        max-rad                        5.000000

      * Solvation model:               ALPB
        Solvent                        WATER
        Parameter file                 internal GFN2-xTB/ALPB
        Dielectric constant                8.0200E+01
        Reference state                gsolv [1 M gas/solution]
        Free energy shift                  1.0808E-03 Eh       6.7819E-01 kcal/mol
        Temperature                        2.9815E+02 K
        Density                            1.0000E+00 kg/L
        Solvent mass                       1.8000E+01 g/mol
        Interaction kernel             P16
        Born radius scaling (c1)           1.4744E+00
        Born radii integrator          GBOBC
        Born offset                        0.0000E+00 a0       0.0000E+00 AA
        H-bond correction              true
        Ion screening                  false
        Surface tension                    1.0000E-05 Eh       1.5569E+01 dyn/cm
        Grid points                               230 per atom

          ...................................................
          :                      SETUP                      :
          :.................................................:
          :  # basis functions                 128          :
          :  # atomic orbitals                 128          :
          :  # shells                           74          :
          :  # electrons                       141          :
          :  max. iterations                   250          :
          :  Hamiltonian                  GFN2-xTB          :
          :  restarted?                      false          :
          :  GBSA solvation                   true          :
          :  PC potential                    false          :
          :  electronic temp.          300.0000000     K    :
          :  accuracy                    0.2000000          :
          :  -> integral cutoff          0.3198970E+02      :
          :  -> integral neglect         0.2000000E-08      :
          :  -> SCF convergence          0.2000000E-06 Eh   :
          :  -> wf. convergence          0.2000000E-04 e    :
          :  Broyden damping             0.4000000          :
          :  net charge                          0          :
          :  unpaired electrons                  0          :
          ...................................................

 iter      E             dE          RMSdq      gap      omega  full diag
   1    -80.7361749 -0.807362E+02  0.490E+00    1.06       0.0  T
   2    -80.9351899 -0.199015E+00  0.255E+00    0.21       1.0  T
   3    -80.9411569 -0.596706E-02  0.119E+00    0.12       1.0  T
   4    -80.8620279  0.791290E-01  0.131E+00    0.11       1.0  T
   5    -80.9403537 -0.783259E-01  0.375E-01    0.47       1.0  T
   6    -80.9436334 -0.327967E-02  0.238E-01    0.28       1.0  T
   7    -80.9440049 -0.371504E-03  0.201E-01    0.23       1.0  T
   8    -80.9458000 -0.179512E-02  0.260E-02    0.11       1.0  T
   9    -80.9454318  0.368199E-03  0.852E-02    0.09       1.0  T
  10    -80.9457611 -0.329257E-03  0.308E-02    0.12       1.0  T
  11    -80.9458073 -0.462436E-04  0.265E-03    0.11       5.5  T
  12    -80.9458058  0.149850E-05  0.580E-03    0.11       2.5  T
  13    -80.9458072 -0.137029E-05  0.244E-03    0.11       6.0  T
  14    -80.9458073 -0.404993E-07  0.223E-03    0.11       6.5  T
  15    -80.9458075 -0.230120E-06  0.614E-04    0.11      23.8  T
  16    -80.9458075 -0.705748E-08  0.470E-04    0.11      31.0  T
  17    -80.9458075 -0.101028E-07  0.137E-04    0.11     106.5  T
  18    -80.9458075 -0.892271E-09  0.275E-05    0.11     530.0  T

   *** convergence criteria satisfied after 18 iterations ***

         #    Occupation            Energy/Eh            Energy/eV
      -------------------------------------------------------------
         1        2.0000           -0.7755283             -21.1032
       ...           ...                  ...                  ...
        65        2.0000           -0.4194894             -11.4149
        66        2.0000           -0.4157521             -11.3132
        67        2.0000           -0.4137342             -11.2583
        68        2.0000           -0.4061822             -11.0528
        69        2.0000           -0.4017114             -10.9311
        70        2.0000           -0.3937605             -10.7148
        71        0.8912           -0.3294167              -8.9639 (HOMO)
        72        0.1088           -0.3254200              -8.8551 (LUMO)
        73                         -0.2512783              -6.8376
        74                         -0.2411949              -6.5632
        75                         -0.2336407              -6.3577
        76                         -0.2310231              -6.2865
       ...                                ...                  ...
       128                          0.6466357              17.5959
      -------------------------------------------------------------
                  HL-Gap            0.0039967 Eh            0.1088 eV
             Fermi-level           -0.3445035 Eh           -9.3744 eV

 SCC (total)                   0 d,  0 h,  0 min,  0.105 sec
 SCC setup                      ...        0 min,  0.001 sec (  1.168%)
 Dispersion                     ...        0 min,  0.000 sec (  0.405%)
 classical contributions        ...        0 min,  0.000 sec (  0.058%)
 integral evaluation            ...        0 min,  0.006 sec (  5.439%)
 iterations                     ...        0 min,  0.067 sec ( 63.787%)
 molecular gradient             ...        0 min,  0.030 sec ( 28.217%)
 printout                       ...        0 min,  0.001 sec (  0.899%)

         :::::::::::::::::::::::::::::::::::::::::::::::::::::
         ::                     SUMMARY                     ::
         :::::::::::::::::::::::::::::::::::::::::::::::::::::
         :: total energy             -79.900214693170 Eh    ::
         :: total w/o Gsasa/hb       -79.897383589971 Eh    ::
         :: gradient norm              0.035305952340 Eh/a0 ::
         :: HOMO-LUMO gap              0.108755065801 eV    ::
         ::.................................................::
         :: SCC energy               -80.944847712741 Eh    ::
         :: -> isotropic ES            0.178534441855 Eh    ::
         :: -> anisotropic ES         -0.002467445378 Eh    ::
         :: -> anisotropic XC          0.021122535430 Eh    ::
         :: -> dispersion             -0.057055348076 Eh    ::
         :: -> Gsolv                  -0.028366620797 Eh    ::
         ::    -> Gelec               -0.025535517597 Eh    ::
         ::    -> Gsasa                0.002230982395 Eh    ::
         ::    -> Ghb                 -0.006142845293 Eh    ::
         ::    -> Gshift               0.001080759698 Eh    ::
         :: repulsion energy           1.044633019571 Eh    ::
         :: add. restraining           0.000000000000 Eh    ::
         :: total charge              -0.000000000000 e     ::
         :::::::::::::::::::::::::::::::::::::::::::::::::::::


Property printout bound to 'properties.out'

           -------------------------------------------------
          | TOTAL ENERGY              -79.900214693170 Eh   |
          | GRADIENT NORM               0.035305952340 Eh/α |
          | HOMO-LUMO GAP               0.108755065801 eV   |
           -------------------------------------------------

------------------------------------------------------------------------
 * finished run on 2025/07/16 at 15:48:04.272     
------------------------------------------------------------------------
 total:
 * wall-time:     0 d,  0 h,  0 min,  0.138 sec
 *  cpu-time:     0 d,  0 h,  0 min,  0.096 sec
 * ratio c/w:     0.694 speedup
 SCF:
 * wall-time:     0 d,  0 h,  0 min,  0.106 sec
 *  cpu-time:     0 d,  0 h,  0 min,  0.084 sec
 * ratio c/w:     0.790 speedup


-------------------------   --------------------
FINAL SINGLE POINT ENERGY       -79.900214693170
-------------------------   --------------------


-------------
DIPOLE MOMENT
-------------
                                X             Y             Z
Total Dipole Moment    :     -0.68600      -2.03600       0.95600
                        -----------------------------------------
Magnitude (a.u.)       :      2.35156
Magnitude (Debye)      :      5.97719


------------------
CARTESIAN GRADIENT
------------------

   1   H   :   -0.000335358   -0.000169497    0.000691365
   2   H   :    0.000216812   -0.000249953    0.000502590
   3   H   :    0.000005005   -0.000037572   -0.000083850
   4   H   :    0.000365675    0.000116201   -0.000264665
   5   H   :   -0.000404022   -0.000096722   -0.000118793
   6   H   :    0.000049149    0.000059362   -0.000174534
   7   H   :    0.000057871   -0.000434940   -0.000027502
   8   H   :   -0.000513531   -0.000456458   -0.000295370
   9   H   :   -0.000248030   -0.000726159   -0.000107771
  10   H   :   -0.000001110   -0.000442228   -0.000500603
  11   H   :   -0.000040514   -0.000127883   -0.000254233
  12   H   :   -0.001853386   -0.000201060    0.001286226
  13   H   :    0.000035512   -0.000689809    0.000272604
  14   N   :   -0.000842354    0.000717229    0.000789021
  15   C   :    0.000804661   -0.000553209   -0.000420043
  16   C   :   -0.005249131    0.015526873   -0.002548933
  17   C   :    0.000970359    0.000335813   -0.000285388
  18   O   :    0.005083564   -0.012311961    0.001033219
  19   C   :    0.000185000   -0.000137200    0.000590734
  20   C   :   -0.000064773   -0.000016555    0.000212749
  21   C   :   -0.000216526   -0.000338490   -0.000283101
  22   C   :   -0.000171619   -0.000232220    0.001779261
  23   C   :   -0.000212075    0.000648933    0.000116216
  24   C   :   -0.000001382    0.000681889    0.000457042
  25   O   :   -0.003034058   -0.000335880    0.000073928
  26   C   :    0.003481392    0.000896374   -0.002780986
  27   C   :   -0.000004437    0.000014774   -0.000527571
  28   C   :   -0.000748984   -0.000350403   -0.000994629
  29   C   :    0.000173889    0.000989667   -0.000233899
  30   C   :    0.000392045    0.000915007    0.000256138
  31   C   :    0.000587721    0.000635587    0.001272693
  32   C   :    0.000496487   -0.002361124    0.001283051
  33   N   :   -0.001615318    0.012629420   -0.003315191
  34   O   :    0.000464016   -0.002093295    0.003052836
  35   O   :    0.000906739   -0.008195477   -0.001670168
  36   C   :    0.001722185    0.000246773   -0.000143090
  37   N   :   -0.000313614   -0.002379497    0.001659309
  38   H   :   -0.000470118    0.000189560    0.000602073
  39   H   :    0.000164413   -0.000033903   -0.000267571
  40   H   :   -0.000752613   -0.000258909   -0.000211668
  41   H   :   -0.000111964   -0.000065831    0.000005941
  42   C   :    0.008185752   -0.015015361   -0.000326178
  43   O   :   -0.007163647    0.010505591    0.001000252
  44   C   :    0.000027027    0.001576810   -0.000563102
  45   H   :   -0.000401212    0.000523008   -0.000717347
  46   H   :    0.000285052    0.000841251    0.000333733
  47   H   :    0.000109449    0.000261476   -0.000154797

Difference to translation invariance:
           :   -0.0000000000    0.0000000000    0.0000000000

Difference to rotation invariance:
           :   -0.0002072110   -0.0000611644    0.0002777537

Norm of the Cartesian gradient     ...    0.0353059523
RMS gradient                       ...    0.0029732976
MAX gradient                       ...    0.0155268728
------------------------------------------------------------------------------
                         ORCA GEOMETRY RELAXATION STEP
------------------------------------------------------------------------------

Reading the OPT-File                    .... done
Getting information on internals        .... done
Copying old internal coords+grads       .... done
Making the new internal coordinates     .... (2022 redundants) done
Validating the new internal coordinates .... (2022 redundants) done
Calculating the B-matrix                .... done
Calculating the G,G- and P matrices     .... done
Transforming gradient to internals      .... done
Projecting the internal gradient        .... done
Number of atoms                         ....  47
Number of internal coordinates          .... 227
Current Energy                          ....   -79.900214693 Eh
Current gradient norm                   ....     0.035305952 Eh/bohr
Maximum allowed component of the step   ....  0.300
Current trust radius                    ....  0.300
Evaluating the initial hessian          ....  (Almloef) done
Projecting the Hessian                  .... done
Forming the augmented Hessian           .... done
Diagonalizing the augmented Hessian     .... done
Last element of RFO vector              ....  0.987463497
Lowest eigenvalues of augmented Hessian:
 -0.001194588  0.010876526  0.012060717  0.012108382  0.012522388
Length of the computed step             ....  0.159851506
The final length of the internal step   ....  0.159851506
Converting the step to Cartesian space:
 Initial RMS(Int)=    0.0106097171
Transforming coordinates:
 Iter   0:  RMS(Cart)=    0.1522081887 RMS(Int)=    0.0130493207
 Iter   5:  RMS(Cart)=    0.0000011471 RMS(Int)=    0.0000002632
done
Storing new coordinates                 .... done

                                .--------------------.
          ----------------------|Geometry convergence|-------------------------
          Item                value                   Tolerance       Converged
          ---------------------------------------------------------------------
          RMS gradient        0.0015407937            0.0001000000      NO
          MAX gradient        0.0129930330            0.0003000000      NO
          RMS step            0.0106097171            0.0020000000      NO
          MAX step            0.0489097931            0.0040000000      NO
          -------------------------------------------------------------------------
          ........................................................
          Max(Bonds)      0.0249      Max(Angles)    0.57
          Max(Dihed)        2.80      Max(Improp)    0.00
          ---------------------------------------------------------------------

The optimization has not yet converged - more geometry cycles are needed


    ---------------------------------------------------------------------------
                         Redundant Internal Coordinates
                            (Angstroem and degrees)

        Definition                    Value    dE/dq     Step     New-Value
    ----------------------------------------------------------------------------
     1. B(N  13,H  11)                1.0304 -0.000000 -0.0007    1.0297   
     2. B(C  14,N  13)                1.3563 -0.000832  0.0014    1.3577   
     3. B(C  15,C  14)                1.4643  0.002103 -0.0011    1.4631   
     4. B(C  16,H   7)                1.0963  0.000747 -0.0011    1.0952   
     5. B(C  16,H   3)                1.0935  0.000434 -0.0006    1.0928   
     6. B(C  16,C  14)                1.4835  0.000162  0.0000    1.4835   
     7. B(O  17,C  15)                1.2390 -0.012993  0.0071    1.2461   
     8. B(O  17,H  11)                1.9322 -0.001947  0.0249    1.9571   
     9. B(C  18,C  16)                1.5118 -0.000159  0.0004    1.5122   
    10. B(C  19,H   5)                1.0799  0.000093 -0.0001    1.0798   
    11. B(C  19,C  18)                1.3896 -0.000573  0.0005    1.3900   
    12. B(C  20,C  19)                1.3812 -0.000645  0.0006    1.3818   
    13. B(C  20,H   2)                1.0794 -0.000087  0.0001    1.0795   
    14. B(C  21,C  20)                1.3894 -0.000281  0.0003    1.3897   
    15. B(C  22,C  21)                1.3905 -0.000274  0.0002    1.3907   
    16. B(C  22,H   6)                1.0799  0.000418 -0.0006    1.0793   
    17. B(C  23,C  22)                1.3811 -0.000051  0.0001    1.3813   
    18. B(C  23,C  18)                1.3901 -0.000226  0.0003    1.3904   
    19. B(C  23,H   9)                1.0797  0.000667 -0.0009    1.0787   
    20. B(O  24,C  21)                1.3838 -0.002174  0.0022    1.3859   
    21. B(C  25,O  24)                1.4258 -0.004003  0.0044    1.4302   
    22. B(C  25,H   4)                1.0946  0.000111 -0.0002    1.0944   
    23. B(C  25,H   0)                1.0915  0.000599 -0.0009    1.0907   
    24. B(C  26,C  25)                1.5094 -0.000224  0.0004    1.5098   
    25. B(C  27,C  26)                1.3898  0.000230 -0.0002    1.3896   
    26. B(C  27,H   1)                1.0795  0.000549 -0.0008    1.0787   
    27. B(C  28,C  27)                1.3837 -0.000869  0.0007    1.3844   
    28. B(C  28,H  12)                1.0792  0.000734 -0.0010    1.0782   
    29. B(C  29,C  28)                1.3870 -0.000743  0.0006    1.3875   
    30. B(C  29,H   8)                1.0788  0.000745 -0.0010    1.0777   
    31. B(C  30,C  29)                1.3787 -0.000300  0.0002    1.3789   
    32. B(C  30,H  10)                1.0794  0.000227 -0.0003    1.0791   
    33. B(C  31,C  30)                1.3942 -0.000774  0.0007    1.3949   
    34. B(C  31,C  26)                1.4011 -0.000476  0.0004    1.4015   
    35. B(N  32,C  31)                1.4287  0.002421 -0.0028    1.4258   
    36. B(O  33,N  32)                1.2273 -0.003239  0.0018    1.2291   
    37. B(O  34,N  32)                1.2214 -0.007982  0.0045    1.2259   
    38. B(N  36,C  35)                1.4402 -0.001158  0.0013    1.4415   
    39. B(N  36,C  15)                1.3451  0.001640 -0.0015    1.3437   
    40. B(H  37,O  33)                2.0181 -0.000603  0.0178    2.0359   
    41. B(H  37,N  36)                1.0119 -0.000687  0.0006    1.0126   
    42. B(H  38,C  35)                1.0885  0.000009 -0.0000    1.0885   
    43. B(H  39,C  35)                1.0919  0.000802 -0.0012    1.0908   
    44. B(H  40,C  35)                1.0917  0.000004 -0.0000    1.0916   
    45. B(C  41,N  13)                1.3741  0.001169 -0.0010    1.3730   
    46. B(O  42,C  41)                1.2143 -0.012754  0.0063    1.2206   
    47. B(C  43,C  41)                1.5086  0.003283 -0.0043    1.5043   
    48. B(H  44,C  43)                1.0882  0.000880 -0.0013    1.0869   
    49. B(H  45,C  43)                1.0882  0.000862 -0.0013    1.0869   
    50. B(H  46,C  43)                1.0860  0.000151 -0.0002    1.0858   
    51. A(H  11,N  13,C  41)          119.25  0.000617   -0.22    119.03   
    52. A(C  14,N  13,C  41)          132.00 -0.000567   -0.02    131.98   
    53. A(H  11,N  13,C  14)          108.75 -0.000051    0.24    108.99   
    54. A(N  13,C  14,C  15)          110.81 -0.000200    0.40    111.21   
    55. A(N  13,C  14,C  16)          123.20 -0.001608    0.01    123.21   
    56. A(C  15,C  14,C  16)          125.99  0.001804   -0.40    125.58   
    57. A(O  17,C  15,N  36)          123.49  0.000919   -0.23    123.26   
    58. A(C  14,C  15,O  17)          118.48 -0.000765    0.33    118.81   
    59. A(C  14,C  15,N  36)          118.02 -0.000149   -0.11    117.91   
    60. A(H   3,C  16,H   7)          107.67 -0.000032   -0.05    107.62   
    61. A(H   3,C  16,C  14)          108.40 -0.000148   -0.06    108.34   
    62. A(C  14,C  16,C  18)          114.47 -0.000698    0.19    114.66   
    63. A(H   3,C  16,C  18)          108.83  0.000852   -0.25    108.58   
    64. A(H   7,C  16,C  14)          109.40  0.000392    0.02    109.42   
    65. A(H   7,C  16,C  18)          107.87 -0.000330    0.14    108.01   
    66. A(C  16,C  18,C  23)          119.08  0.000267   -0.04    119.04   
    67. A(C  19,C  18,C  23)          118.85  0.000296   -0.05    118.81   
    68. A(C  16,C  18,C  19)          122.07 -0.000561    0.08    122.15   
    69. A(C  18,C  19,C  20)          120.70 -0.000257    0.05    120.75   
    70. A(H   5,C  19,C  18)          119.95 -0.000022    0.01    119.96   
    71. A(H   5,C  19,C  20)          119.33  0.000274   -0.04    119.29   
    72. A(H   2,C  20,C  21)          119.53 -0.000085    0.00    119.54   
    73. A(C  19,C  20,C  21)          119.95  0.000233   -0.01    119.94   
    74. A(H   2,C  20,C  19)          120.50 -0.000149    0.01    120.52   
    75. A(C  22,C  21,O  24)          119.70  0.000804   -0.06    119.64   
    76. A(C  20,C  21,O  24)          120.56 -0.000885    0.09    120.65   
    77. A(C  20,C  21,C  22)          119.73  0.000078   -0.02    119.71   
    78. A(C  21,C  22,C  23)          119.80 -0.000284    0.04    119.84   
    79. A(H   6,C  22,C  23)          120.90 -0.000002    0.01    120.91   
    80. A(H   6,C  22,C  21)          119.28  0.000281   -0.04    119.24   
    81. A(C  18,C  23,C  22)          120.81 -0.000079    0.03    120.83   
    82. A(H   9,C  23,C  22)          119.56  0.000071   -0.01    119.55   
    83. A(H   9,C  23,C  18)          119.61  0.000007   -0.00    119.60   
    84. A(C  21,O  24,C  25)          113.11 -0.003132    0.57    113.68   
    85. A(H   0,C  25,H   4)          109.53  0.000013   -0.06    109.47   
    86. A(O  24,C  25,C  26)          108.86 -0.001354    0.27    109.13   
    87. A(H   4,C  25,C  26)          111.87  0.000431    0.02    111.89   
    88. A(H   0,C  25,C  26)          110.21 -0.000526    0.04    110.25   
    89. A(H   4,C  25,O  24)          110.87  0.000335   -0.03    110.85   
    90. A(H   0,C  25,O  24)          105.29  0.001124   -0.26    105.03   
    91. A(C  27,C  26,C  31)          117.48 -0.000155    0.01    117.49   
    92. A(C  25,C  26,C  31)          122.92  0.000741   -0.02    122.90   
    93. A(C  25,C  26,C  27)          118.91 -0.000603    0.05    118.96   
    94. A(C  26,C  27,C  28)          121.69  0.000368   -0.04    121.64   
    95. A(H   1,C  27,C  28)          119.74 -0.000426    0.06    119.80   
    96. A(H   1,C  27,C  26)          118.57  0.000058   -0.02    118.56   
    97. A(C  27,C  28,C  29)          120.10 -0.000273    0.04    120.14   
    98. A(H  12,C  28,C  29)          120.09  0.000029   -0.00    120.09   
    99. A(H  12,C  28,C  27)          119.80  0.000244   -0.04    119.77   
   100. A(C  28,C  29,C  30)          119.49 -0.000052    0.01    119.50   
   101. A(H   8,C  29,C  30)          120.03  0.000243   -0.04    119.99   
   102. A(H   8,C  29,C  28)          120.48 -0.000191    0.03    120.51   
   103. A(C  29,C  30,C  31)          120.26  0.000531   -0.07    120.19   
   104. A(H  10,C  30,C  31)          118.48 -0.000144    0.01    118.50   
   105. A(H  10,C  30,C  29)          121.26 -0.000386    0.05    121.31   
   106. A(C  30,C  31,N  32)          116.17 -0.000519    0.05    116.22   
   107. A(C  26,C  31,N  32)          122.88  0.000936   -0.10    122.77   
   108. A(C  26,C  31,C  30)          120.95 -0.000416    0.05    121.00   
   109. A(O  33,N  32,O  34)          123.36  0.004204   -0.48    122.89   
   110. A(C  31,N  32,O  34)          119.32 -0.001911    0.27    119.59   
   111. A(C  31,N  32,O  33)          117.28 -0.002319    0.27    117.55   
   112. A(N  36,C  35,H  38)          108.24 -0.000503    0.09    108.33   
   113. A(H  39,C  35,H  40)          108.96 -0.000120    0.01    108.97   
   114. A(H  38,C  35,H  40)          109.84  0.000189   -0.04    109.79   
   115. A(N  36,C  35,H  40)          110.00  0.000185   -0.04    109.96   
   116. A(H  38,C  35,H  39)          109.51 -0.000009    0.03    109.54   
   117. A(N  36,C  35,H  39)          110.28  0.000259   -0.04    110.24   
   118. A(C  35,N  36,H  37)          116.00  0.000275   -0.01    115.99   
   119. A(C  15,N  36,H  37)          121.41  0.001054   -0.16    121.24   
   120. A(C  15,N  36,C  35)          121.91 -0.001358    0.22    122.13   
   121. A(O  42,C  41,C  43)          124.23  0.000636   -0.09    124.14   
   122. A(N  13,C  41,C  43)          111.98 -0.001361    0.19    112.17   
   123. A(N  13,C  41,O  42)          123.79  0.000725   -0.10    123.69   
   124. A(H  45,C  43,H  46)          109.34 -0.000394    0.09    109.43   
   125. A(H  44,C  43,H  46)          109.36 -0.000382    0.08    109.44   
   126. A(C  41,C  43,H  46)          109.34  0.000190   -0.03    109.32   
   127. A(H  44,C  43,H  45)          108.51 -0.000322    0.03    108.54   
   128. A(C  41,C  43,H  45)          110.15  0.000415   -0.08    110.07   
   129. A(C  41,C  43,H  44)          110.13  0.000477   -0.09    110.03   
   130. D(C  16,C  14,N  13,C  41)      1.56  0.000342   -0.71      0.85   
   131. D(C  15,C  14,N  13,C  41)   -179.08  0.000043    0.04   -179.05   
   132. D(C  16,C  14,N  13,H  11)   -179.22  0.000283   -0.59   -179.80   
   133. D(C  15,C  14,N  13,H  11)      0.14 -0.000016    0.16      0.30   
   134. D(N  36,C  15,C  14,N  13)    178.99  0.000890   -2.80    176.19   
   135. D(O  17,C  15,C  14,C  16)    179.14  0.000235   -1.35    177.79   
   136. D(N  36,C  15,C  14,C  16)     -1.68  0.000553   -2.03     -3.71   
   137. D(O  17,C  15,C  14,N  13)     -0.20  0.000572   -2.12     -2.31   
   138. D(H   7,C  16,C  14,C  15)     60.72  0.000550   -2.36     58.37   
   139. D(C  18,C  16,C  14,N  13)    118.80  0.000801   -1.82    116.98   
   140. D(H   3,C  16,C  14,C  15)    177.87  0.000646   -2.44    175.43   
   141. D(H   3,C  16,C  14,N  13)     -2.88  0.000282   -1.58     -4.45   
   142. D(H   7,C  16,C  14,N  13)   -120.02  0.000187   -1.49   -121.51   
   143. D(C  19,C  18,C  16,H   3)    106.76  0.000281   -1.04    105.72   
   144. D(C  19,C  18,C  16,H   7)   -136.70  0.000516   -1.16   -137.86   
   145. D(C  19,C  18,C  16,C  14)    -14.68  0.000313   -0.90    -15.58   
   146. D(C  23,C  18,C  16,H   7)     43.78  0.000278   -0.27     43.51   
   147. D(C  23,C  18,C  16,H   3)    -72.76  0.000043   -0.15    -72.91   
   148. D(C  20,C  19,C  18,C  16)    176.80 -0.000464    1.34    178.14   
   149. D(H   5,C  19,C  18,C  23)    177.82  0.000011   -0.12    177.70   
   150. D(C  20,C  19,C  18,C  23)     -3.68 -0.000227    0.45     -3.22   
   151. D(H   5,C  19,C  18,C  16)     -1.70 -0.000227    0.77     -0.93   
   152. D(C  21,C  20,C  19,C  18)      0.90  0.000193   -0.24      0.66   
   153. D(C  21,C  20,C  19,H   5)    179.41 -0.000047    0.33    179.74   
   154. D(H   2,C  20,C  19,C  18)   -177.81  0.000208   -0.54   -178.35   
   155. D(H   2,C  20,C  19,H   5)      0.70 -0.000033    0.02      0.73   
   156. D(O  24,C  21,C  20,C  19)   -176.60  0.000240   -1.06   -177.66   
   157. D(O  24,C  21,C  20,H   2)      2.12  0.000225   -0.76      1.36   
   158. D(C  22,C  21,C  20,C  19)      2.57 -0.000005   -0.16      2.41   
   159. D(C  22,C  21,C  20,H   2)   -178.71 -0.000021    0.14   -178.57   
   160. D(H   6,C  22,C  21,C  20)    178.37  0.000063   -0.18    178.19   
   161. D(C  23,C  22,C  21,O  24)    175.98 -0.000396    1.23    177.21   
   162. D(C  23,C  22,C  21,C  20)     -3.20 -0.000138    0.33     -2.86   
   163. D(H   6,C  22,C  21,O  24)     -2.46 -0.000195    0.71     -1.74   
   164. D(C  18,C  23,C  22,C  21)      0.38  0.000117   -0.12      0.26   
   165. D(C  18,C  23,C  22,H   6)    178.79 -0.000083    0.40    179.19   
   166. D(H   9,C  23,C  22,C  21)   -178.01  0.000187   -0.50   -178.52   
   167. D(H   9,C  23,C  22,H   6)      0.40 -0.000013    0.02      0.41   
   168. D(C  22,C  23,C  18,C  19)      3.04  0.000073   -0.28      2.76   
   169. D(C  22,C  23,C  18,C  16)   -177.42  0.000300   -1.14   -178.56   
   170. D(H   9,C  23,C  18,C  19)   -178.57  0.000004    0.11   -178.46   
   171. D(H   9,C  23,C  18,C  16)      0.97  0.000230   -0.75      0.22   
   172. D(C  25,O  24,C  21,C  22)   -102.43  0.000884   -1.46   -103.89   
   173. D(C  25,O  24,C  21,C  20)     76.74  0.000633   -0.56     76.18   
   174. D(C  26,C  25,O  24,C  21)     72.51  0.001050   -1.24     71.27   
   175. D(H   4,C  25,O  24,C  21)    -50.96  0.001211   -1.44    -52.40   
   176. D(H   0,C  25,O  24,C  21)   -169.33  0.000369   -1.20   -170.53   
   177. D(C  31,C  26,C  25,H   4)     41.06  0.000311   -1.21     39.85   
   178. D(C  31,C  26,C  25,H   0)    163.17  0.000253   -1.24    161.93   
   179. D(C  27,C  26,C  25,O  24)     88.40  0.000403   -1.07     87.33   
   180. D(C  27,C  26,C  25,H   4)   -148.73  0.000169   -0.90   -149.63   
   181. D(C  27,C  26,C  25,H   0)    -26.61  0.000111   -0.93    -27.54   
   182. D(C  28,C  27,C  26,C  31)     -0.79 -0.000084    0.20     -0.59   
   183. D(C  28,C  27,C  26,C  25)   -171.54 -0.000041   -0.09   -171.63   
   184. D(H   1,C  27,C  26,C  31)    178.64 -0.000029    0.11    178.75   
   185. D(H   1,C  27,C  26,C  25)      7.89  0.000014   -0.18      7.71   
   186. D(C  29,C  28,C  27,C  26)      1.81 -0.000008   -0.02      1.79   
   187. D(C  29,C  28,C  27,H   1)   -177.62 -0.000067    0.07   -177.55   
   188. D(H  12,C  28,C  27,C  26)   -179.12  0.000005   -0.02   -179.14   
   189. D(H  12,C  28,C  27,H   1)      1.46 -0.000054    0.07      1.53   
   190. D(C  30,C  29,C  28,H  12)    179.87  0.000033   -0.09    179.78   
   191. D(H   8,C  29,C  28,C  27)    178.94 -0.000009    0.03    178.97   
   192. D(H   8,C  29,C  28,H  12)     -0.13 -0.000024    0.03     -0.10   
   193. D(C  30,C  29,C  28,C  27)     -1.06  0.000049   -0.09     -1.15   
   194. D(C  31,C  30,C  29,C  28)     -0.64  0.000003    0.01     -0.64   
   195. D(C  31,C  30,C  29,H   8)    179.35  0.000060   -0.11    179.24   
   196. D(H  10,C  30,C  29,C  28)   -179.99 -0.000135    0.25   -179.73   
   197. D(H  10,C  30,C  29,H   8)      0.01 -0.000077    0.14      0.14   
   198. D(N  32,C  31,C  30,C  29)   -177.56 -0.000147    0.25   -177.30   
   199. D(N  32,C  31,C  30,H  10)      1.81 -0.000015    0.01      1.82   
   200. D(C  26,C  31,C  30,C  29)      1.66 -0.000101    0.18      1.85   
   201. D(C  26,C  31,C  30,H  10)   -178.98  0.000031   -0.05   -179.03   
   202. D(N  32,C  31,C  26,C  27)    178.23  0.000177   -0.36    177.87   
   203. D(N  32,C  31,C  26,C  25)    -11.43 -0.000006   -0.04    -11.47   
   204. D(C  30,C  31,C  26,C  27)     -0.93  0.000140   -0.28     -1.22   
   205. D(C  30,C  31,C  26,C  25)    169.41 -0.000043    0.03    169.44   
   206. D(O  34,N  32,C  31,C  30)    143.40 -0.000282    0.82    144.23   
   207. D(O  34,N  32,C  31,C  26)    -35.80 -0.000317    0.89    -34.90   
   208. D(O  33,N  32,C  31,C  30)    -34.46  0.000350   -0.84    -35.30   
   209. D(O  33,N  32,C  31,C  26)    146.34  0.000314   -0.78    145.57   
   210. D(H  37,N  36,C  35,H  39)    -68.67 -0.000167    0.26    -68.41   
   211. D(H  37,N  36,C  35,H  38)    171.55  0.000000    0.20    171.75   
   212. D(C  15,N  36,C  35,H  40)   -119.11  0.000050   -0.05   -119.15   
   213. D(C  15,N  36,C  35,H  39)    120.68 -0.000084   -0.00    120.68   
   214. D(C  15,N  36,C  35,H  38)      0.90  0.000083   -0.07      0.83   
   215. D(H  37,N  36,C  15,O  17)   -175.56  0.000299   -0.61   -176.17   
   216. D(H  37,N  36,C  15,C  14)      5.30 -0.000020    0.11      5.40   
   217. D(C  35,N  36,C  15,O  17)     -5.41  0.000124   -0.32     -5.73   
   218. D(C  35,N  36,C  15,C  14)    175.45 -0.000196    0.40    175.85   
   219. D(C  43,C  41,N  13,C  14)   -179.28  0.000008   -0.00   -179.28   
   220. D(C  43,C  41,N  13,H  11)      1.56  0.000077   -0.14      1.43   
   221. D(O  42,C  41,N  13,C  14)      0.88  0.000051   -0.11      0.76   
   222. D(O  42,C  41,N  13,H  11)   -178.28  0.000120   -0.24   -178.53   
   223. D(H  46,C  43,C  41,N  13)    179.95  0.000003   -0.07    179.88   
   224. D(H  45,C  43,C  41,O  42)   -120.39  0.000068    0.00   -120.38   
   225. D(H  45,C  43,C  41,N  13)     59.77  0.000112   -0.11     59.66   
   226. D(H  44,C  43,C  41,O  42)    119.98 -0.000097    0.07    120.05   
   227. D(H  44,C  43,C  41,N  13)    -59.87 -0.000053   -0.04    -59.91   
    ----------------------------------------------------------------------------

Geometry step timings:
Preparation and reading OPT file:      0.000 s ( 0.171 %)
Internal coordinates            :      0.000 s ( 0.209 %)
B/P matrices and projection     :      0.005 s (39.769 %)
Hessian update/contruction      :      0.002 s (17.563 %)
Making the step                 :      0.004 s (31.863 %)
Converting the step to Cartesian:      0.001 s ( 4.395 %)
Storing new data                :      0.000 s ( 0.341 %)
Checking convergence            :      0.000 s ( 0.349 %)
Final printing                  :      0.001 s ( 5.317 %)
Total time                      :      0.013 s

Time for energy+gradient        :      0.144 s
Time for complete geometry iter :      0.157 s

         *************************************************************
         *                GEOMETRY OPTIMIZATION CYCLE   2            *
         *************************************************************
---------------------------------
CARTESIAN COORDINATES (ANGSTROEM)
---------------------------------
  H    -0.213200   -0.216667    4.762280
  H    -0.682635   -2.529823    4.717698
  H     0.418494    2.368821    2.080892
  H     0.628605    1.269526   -3.025041
  H    -1.005707    0.931844    3.650698
  H     0.021827    3.033772   -0.252472
  H     0.557613   -1.726812    0.900343
  H    -1.022254    0.674914   -2.827722
  H    -3.408239   -4.223092    1.898557
  H     0.124945   -1.066396   -1.437424
  H    -3.629745   -2.005518    0.813784
  H    -0.670321    4.585651   -3.343584
  H    -1.948992   -4.462028    3.883596
  N    -0.126300    3.711374   -3.353440
  C    -0.791649    2.769657   -2.636883
  C    -2.046028    3.299387   -2.101869
  C    -0.287291    1.388870   -2.440948
  O    -2.329334    4.494994   -2.309039
  C     0.005762    1.025315   -1.003122
  C     0.124312    1.987340   -0.006656
  C     0.353727    1.620519    1.305551
  C     0.481440    0.277260    1.637103
  C     0.428177   -0.688054    0.637492
  C     0.189534   -0.311585   -0.669483
  O     0.661854   -0.112684    2.954256
  C    -0.535755   -0.053093    3.733339
  C    -1.465829   -1.157390    3.292614
  C    -1.348583   -2.412412    3.877246
  C    -2.051757   -3.504695    3.398390
  C    -2.871124   -3.372946    2.286170
  C    -2.997411   -2.141935    1.677523
  C    -2.316466   -1.035572    2.185371
  N    -2.553172    0.208023    1.528124
  O    -2.724875    0.185828    0.310928
  O    -2.586264    1.242347    2.185410
  C    -4.064617    2.899354   -0.794326
  N    -2.851504    2.455558   -1.434061
  H    -2.566186    1.504549   -1.232814
  H    -4.175136    3.967301   -0.973265
  H    -4.924260    2.369493   -1.206658
  H    -4.011284    2.708005    0.279096
  C     1.060168    3.672349   -4.043387
  O     1.758890    2.675563   -4.132928
  C     1.394241    4.996902   -4.673438
  H     0.612054    5.285306   -5.370818
  H     1.474864    5.764236   -3.907893
  H     2.338424    4.914667   -5.203191

----------------------------
CARTESIAN COORDINATES (A.U.)
----------------------------
  NO LB    ZA    FRAG    MASS        X           Y           Z
   0 H   1.0000    0     1.008   -0.402889   -0.409441    8.999406
   1 H   1.0000    0     1.008   -1.289993   -4.780672    8.915157
   2 H   1.0000    0     1.008    0.790840    4.476423    3.932316
   3 H   1.0000    0     1.008    1.187890    2.399057   -5.716499
   4 H   1.0000    0     1.008   -1.900511    1.760929    6.898820
   5 H   1.0000    0     1.008    0.041247    5.732998   -0.477102
   6 H   1.0000    0     1.008    1.053737   -3.263202    1.701402
   7 H   1.0000    0     1.008   -1.931781    1.275403   -5.343620
   8 H   1.0000    0     1.008   -6.440638   -7.980486    3.587752
   9 H   1.0000    0     1.008    0.236111   -2.015195   -2.716338
  10 H   1.0000    0     1.008   -6.859224   -3.789880    1.537829
[...]
  26 C   6.0000    0    12.011   -2.814660   -2.219942    6.201410
  27 C   6.0000    0    12.011   -2.572619   -4.552333    7.383168
  28 C   6.0000    0    12.011   -3.825980   -6.673988    6.502737
  29 C   6.0000    0    12.011   -5.312725   -6.526813    4.348108
  30 C   6.0000    0    12.011   -5.566244   -4.244276    3.117329
  31 C   6.0000    0    12.011   -4.358906   -2.092368    4.050887
  32 N   7.0000    0    14.007   -4.807476    0.189083    2.710611
  33 O   8.0000    0    15.999   -5.098813    0.053896    0.408519
  34 O   8.0000    0    15.999   -4.956544    2.200242    3.863646
  35 C   6.0000    0    12.011   -7.577526    5.616688   -1.327994
  36 N   7.0000    0    14.007   -5.345677    4.747340   -2.625131
  37 H   1.0000    0     1.008   -4.761161    2.983516   -2.174095
  38 H   1.0000    0     1.008   -7.872140    7.596474   -1.800273
  39 H   1.0000    0     1.008   -9.208891    4.507133   -1.918449
  40 H   1.0000    0     1.008   -7.332006    5.419493    0.711644
  41 C   6.0000    0    12.011    2.009877    6.919961   -7.669382
  42 O   8.0000    0    15.999    3.299328    5.003914   -7.814828
  43 C   6.0000    0    12.011    2.701880    9.386613   -8.887572
  44 H   1.0000    0     1.008    1.244603    9.943432  -10.224271
  45 H   1.0000    0     1.008    2.873151   10.854192   -7.460270
  46 H   1.0000    0     1.008    4.489887    9.177381   -9.871711

      -----------------------------------------------------------      
     |                   =====================                   |     
     |                           x T B                           |     
     |                   =====================                   |     
     |                         S. Grimme                         |     
     |          Mulliken Center for Theoretical Chemistry        |     
     |                    University of Bonn                     |     
      -----------------------------------------------------------      

   * xtb version 6.7.1 (edcfbbe) compiled by 'albert@albert-system' on 2024-07-22

   xtb is free software: you can redistribute it and/or modify it under
   the terms of the GNU Lesser General Public License as published by
   the Free Software Foundation, either version 3 of the License, or
   (at your option) any later version.
   
   xtb is distributed in the hope that it will be useful,
   but WITHOUT ANY WARRANTY; without even the implied warranty of
   MERCHANTABILITY or FITNESS FOR A PARTICULAR PURPOSE.  See the
   GNU Lesser General Public License for more details.
   
   Cite this work as:
   * C. Bannwarth, E. Caldeweyher, S. Ehlert, A. Hansen, P. Pracht,
     J. Seibert, S. Spicher, S. Grimme, WIREs Comput. Mol. Sci., 2020, 11,
     e01493. DOI: 10.1002/wcms.1493
   
   for GFN2-xTB:
   * C. Bannwarth, S. Ehlert and S. Grimme., J. Chem. Theory Comput., 2019,
     15, 1652-1671. DOI: 10.1021/acs.jctc.8b01176
   for GFN1-xTB:
   * S. Grimme, C. Bannwarth, P. Shushkov, J. Chem. Theory Comput., 2017,
     13, 1989-2009. DOI: 10.1021/acs.jctc.7b00118
   for GFN0-xTB:
   * P. Pracht, E. Caldeweyher, S. Ehlert, S. Grimme, ChemRxiv, 2019, preprint.
     DOI: 10.26434/chemrxiv.8326202.v1
   for GFN-FF:
   * S. Spicher and S. Grimme, Angew. Chem. Int. Ed., 2020, 59, 15665-15673.
     DOI: 10.1002/anie.202004239
   
   for ALPB and GBSA implicit solvation:
   * S. Ehlert, M. Stahn, S. Spicher, S. Grimme, J. Chem. Theory Comput.,
     2021, 17, 4250-4261. DOI: 10.1021/acs.jctc.1c00471
   
   for ddCOSMO and CPCM-X implicit solvation:
   * M. Stahn, S. Ehlert, S. Grimme, J. Phys. Chem. A,
     2023, XX, XXXX-XXXX. DOI: 10.1021/acs.jpca.3c04382
   
   for DFT-D4:
   * E. Caldeweyher, C. Bannwarth and S. Grimme, J. Chem. Phys., 2017,
     147, 034112. DOI: 10.1063/1.4993215
   * E. Caldeweyher, S. Ehlert, A. Hansen, H. Neugebauer, S. Spicher,
     C. Bannwarth and S. Grimme, J. Chem. Phys., 2019, 150, 154122.
     DOI: 10.1063/1.5090222
   * E. Caldeweyher, J.-M. Mewes, S. Ehlert and S. Grimme, Phys. Chem. Chem. Phys.
     2020, 22, 8499-8512. DOI: 10.1039/D0CP00502A
   
   for sTDA-xTB:
   * S. Grimme and C. Bannwarth, J. Chem. Phys., 2016, 145, 054103.
     DOI: 10.1063/1.4959605
   
   in the mass-spec context:
   * V. Asgeirsson, C. Bauer and S. Grimme, Chem. Sci., 2017, 8, 4879.
     DOI: 10.1039/c7sc00601b
   * J. Koopman and S. Grimme, ACS Omega 2019, 4, 12, 15120-15133.
     DOI: 10.1021/acsomega.9b02011
   
   for metadynamics refer to:
   * S. Grimme, J. Chem. Theory Comput., 2019, 155, 2847-2862
     DOI: 10.1021/acs.jctc.9b00143
   
   for SPH calculations refer to:
   * S. Spicher and S. Grimme, J. Chem. Theory Comput., 2021, 17, 1701-1714
     DOI: 10.1021/acs.jctc.0c01306
   
   for ONIOM refer to:
   * C. Plett, A. Katbashev, S. Ehlert, S. Grimme, M. Bursch,
     Phys. Chem. Chem. Phys., 2023, 25, 17860-17868. DOI: 10.1039/D3CP02178E
   
   for DIPRO refer to:
   * J. Kohn, N. Gildemeister, S. Grimme, D. Fazzi, A. Hansen,
     J. Chem. Phys., 2023, just accepted.
   
   for PTB refer to:
   * S. Grimme, M. Mueller, A. Hansen, J. Chem. Phys., 2023, 158, 124111.
     DOI: 10.1063/5.0137838
   
   with help from (in alphabetical order)
   P. Atkinson, C. Bannwarth, F. Bohle, G. Brandenburg, E. Caldeweyher
   M. Checinski, S. Dohm, S. Ehlert, S. Ehrlich, I. Gerasimov, C. Hölzer
   A. Katbashev, J. Kohn, J. Koopman, C. Lavigne, S. Lehtola, F. März, M. Müller,
   F. Musil, H. Neugebauer, J. Pisarek, C. Plett, P. Pracht, F. Pultar,
   J. Seibert, P. Shushkov, S. Spicher, M. Stahn, M. Steiner, T. Strunk,
   J. Stückrath, T. Rose, and J. Unsleber
   
 * started run on 2025/07/16 at 15:48:06.193     
   ID    Z sym.   atoms
    1    1 H      1-13, 38-41, 45-47
    2    7 N      14, 33, 37
    3    6 C      15-17, 19-24, 26-32, 36, 42, 44
    4    8 O      18, 25, 34, 35, 43

           -------------------------------------------------
          |                Calculation Setup                |
           -------------------------------------------------

          program call               : /home/esp/bin/orca_6_1_0/otool_xtb /home/esp/scriptDevelopment/drFrankenstein/11_PCY_CHARMM/04_torsion_scanning/torsion_NH1-CT1-CG321-CG2R61/scans_PCY_conformer_1/PCY_conformer_1_opt/orca_opt_XTB.xyz --grad -c 0 -u 0 -P 1 --namespace /home/esp/scriptDevelopment/drFrankenstein/11_PCY_CHARMM/04_torsion_scanning/torsion_NH1-CT1-CG321-CG2R61/scans_PCY_conformer_1/PCY_conformer_1_opt/orca_opt --input /home/esp/scriptDevelopment/drFrankenstein/11_PCY_CHARMM/04_torsion_scanning/torsion_NH1-CT1-CG321-CG2R61/scans_PCY_conformer_1/PCY_conformer_1_opt/orca_opt_XTB.input.tmp --alpb WATER --acc 0.200000
          calculation namespace      : /home/esp/scriptDevelopment/drFrankenstein/11_PCY_CHARMM/04_torsion_scanning/torsion_NH1-CT1-CG321-CG2R61/scans_PCY_conformer_1/PCY_conformer_1_opt/orca_opt
          coordinate file            : /home/esp/scriptDevelopment/drFrankenstein/11_PCY_CHARMM/04_torsion_scanning/torsion_NH1-CT1-CG321-CG2R61/scans_PCY_conformer_1/PCY_conformer_1_opt/orca_opt_XTB.xyz
          omp threads                :                     1


           -------------------------------------------------
          |                 G F N 2 - x T B                 |
           -------------------------------------------------

        Reference                      10.1021/acs.jctc.8b01176
      * Hamiltonian:
        H0-scaling (s, p, d)           1.850000    2.230000    2.230000
        zeta-weighting                 0.500000
      * Dispersion:
        s8                             2.700000
        a1                             0.520000
        a2                             5.000000
        s9                             5.000000
      * Repulsion:
        kExp                           1.500000    1.000000
        rExp                           1.000000
      * Coulomb:
        alpha                          2.000000
        third order                    shell-resolved
        anisotropic                    true
        a3                             3.000000
        a5                             4.000000
        cn-shift                       1.200000
        cn-exp                         4.000000
        max-rad                        5.000000

      * Solvation model:               ALPB
        Solvent                        WATER
        Parameter file                 internal GFN2-xTB/ALPB
        Dielectric constant                8.0200E+01
        Reference state                gsolv [1 M gas/solution]
        Free energy shift                  1.0808E-03 Eh       6.7819E-01 kcal/mol
        Temperature                        2.9815E+02 K
        Density                            1.0000E+00 kg/L
        Solvent mass                       1.8000E+01 g/mol
        Interaction kernel             P16
        Born radius scaling (c1)           1.4744E+00
        Born radii integrator          GBOBC
        Born offset                        0.0000E+00 a0       0.0000E+00 AA
        H-bond correction              true
        Ion screening                  false
        Surface tension                    1.0000E-05 Eh       1.5569E+01 dyn/cm
        Grid points                               230 per atom
q/qsh data taken from xtbrestart
CAMM data taken from xtbrestart

          ...................................................
          :                      SETUP                      :
          :.................................................:
          :  # basis functions                 128          :
          :  # atomic orbitals                 128          :
          :  # shells                           74          :
          :  # electrons                       141          :
          :  max. iterations                   250          :
          :  Hamiltonian                  GFN2-xTB          :
          :  restarted?                       true          :
          :  GBSA solvation                   true          :
          :  PC potential                    false          :
          :  electronic temp.          300.0000000     K    :
          :  accuracy                    0.2000000          :
          :  -> integral cutoff          0.3198970E+02      :
          :  -> integral neglect         0.2000000E-08      :
          :  -> SCF convergence          0.2000000E-06 Eh   :
          :  -> wf. convergence          0.2000000E-04 e    :
          :  Broyden damping             0.4000000          :
          :  net charge                          0          :
          :  unpaired electrons                  0          :
          ...................................................

 iter      E             dE          RMSdq      gap      omega  full diag
   1    -80.9431880 -0.809432E+02  0.570E-03    0.11       0.0  T
   2    -80.9431752  0.128164E-04  0.161E-02    0.11       1.0  T
   3    -80.9431883 -0.131468E-04  0.333E-03    0.11       4.4  T
   4    -80.9431886 -0.257773E-06  0.587E-04    0.11      24.9  T
   5    -80.9431886 -0.150941E-07  0.156E-04    0.11      93.5  T
   6    -80.9431886 -0.990994E-09  0.517E-05    0.11     282.4  T

   *** convergence criteria satisfied after 6 iterations ***

         #    Occupation            Energy/Eh            Energy/eV
      -------------------------------------------------------------
         1        2.0000           -0.7733830             -21.0448
       ...           ...                  ...                  ...
        65        2.0000           -0.4192897             -11.4095
        66        2.0000           -0.4158493             -11.3158
        67        2.0000           -0.4130468             -11.2396
        68        2.0000           -0.4059840             -11.0474
        69        2.0000           -0.4018618             -10.9352
        70        2.0000           -0.3938444             -10.7171
        71        0.8935           -0.3314281              -9.0186 (HOMO)
        72        0.1065           -0.3273868              -8.9086 (LUMO)
        73                         -0.2521978              -6.8627
        74                         -0.2417638              -6.5787
        75                         -0.2338906              -6.3645
        76                         -0.2312873              -6.2936
       ...                                ...                  ...
       128                          0.6449994              17.5513
      -------------------------------------------------------------
                  HL-Gap            0.0040414 Eh            0.1100 eV
             Fermi-level           -0.3460218 Eh           -9.4157 eV

 SCC (total)                   0 d,  0 h,  0 min,  0.081 sec
 SCC setup                      ...        0 min,  0.001 sec (  1.602%)
 Dispersion                     ...        0 min,  0.001 sec (  0.618%)
 classical contributions        ...        0 min,  0.000 sec (  0.107%)
 integral evaluation            ...        0 min,  0.008 sec (  9.389%)
 iterations                     ...        0 min,  0.046 sec ( 56.266%)
 molecular gradient             ...        0 min,  0.025 sec ( 31.092%)
 printout                       ...        0 min,  0.001 sec (  0.894%)

         :::::::::::::::::::::::::::::::::::::::::::::::::::::
         ::                     SUMMARY                     ::
         :::::::::::::::::::::::::::::::::::::::::::::::::::::
         :: total energy             -79.901038898802 Eh    ::
         :: total w/o Gsasa/hb       -79.897996317989 Eh    ::
         :: gradient norm              0.000247639920 Eh/a0 ::
         :: HOMO-LUMO gap              0.109971080238 eV    ::
         ::.................................................::
         :: SCC energy               -80.942220890817 Eh    ::
         :: -> isotropic ES            0.184378739595 Eh    ::
         :: -> anisotropic ES         -0.003177372299 Eh    ::
         :: -> anisotropic XC          0.021468325659 Eh    ::
         :: -> dispersion             -0.056821960059 Eh    ::
         :: -> Gsolv                  -0.030649126846 Eh    ::
         ::    -> Gelec               -0.027606546032 Eh    ::
         ::    -> Gsasa                0.002257609293 Eh    ::
         ::    -> Ghb                 -0.006380949805 Eh    ::
         ::    -> Gshift               0.001080759698 Eh    ::
         :: repulsion energy           1.041181992015 Eh    ::
         :: add. restraining           0.000000000000 Eh    ::
         :: total charge               0.000000000000 e     ::
         :::::::::::::::::::::::::::::::::::::::::::::::::::::


Property printout bound to 'properties.out'

           -------------------------------------------------
          | TOTAL ENERGY              -79.901038898802 Eh   |
          | GRADIENT NORM               0.000247639920 Eh/α |
          | HOMO-LUMO GAP               0.109971080238 eV   |
           -------------------------------------------------

------------------------------------------------------------------------
 * finished run on 2025/07/16 at 15:48:06.305     
------------------------------------------------------------------------
 total:
 * wall-time:     0 d,  0 h,  0 min,  0.112 sec
 *  cpu-time:     0 d,  0 h,  0 min,  0.067 sec
 * ratio c/w:     0.603 speedup
 SCF:
 * wall-time:     0 d,  0 h,  0 min,  0.082 sec
 *  cpu-time:     0 d,  0 h,  0 min,  0.054 sec
 * ratio c/w:     0.664 speedup


-------------------------   --------------------
FINAL SINGLE POINT ENERGY       -79.901038898800
-------------------------   --------------------


-------------
DIPOLE MOMENT
-------------
                                X             Y             Z
Total Dipole Moment    :     -0.65700      -2.15000       0.86800
                        -----------------------------------------
Magnitude (a.u.)       :      2.40989
Magnitude (Debye)      :      6.12546

                                *** OPTIMIZATION RUN DONE ***


--------------------------------
SUGGESTED CITATIONS FOR THIS RUN
--------------------------------

Below you find a list of papers that are relevant to this ORCA run
We neither can nor want to force you to cite these papers, but we appreciate if you do
You receive ORCA, which is the product of decades of hard work by many enthusiastic individuals, for free
The only thing we kindly ask in return is that you cite our papers,
We deeply appreciate it, if you show your appreciation for ORCA by not just citing the generic ORCA reference.

Please note that relegating all ORCA citations to the supporting information does *not* help us.
SI sections are not indexed - citations you put there will not count into any citation statistics
But we need these citations in order to attract the funding resources that allow us to do what we are doing

Therefore, if you are a happy ORCA user, please consider citing a few of the papers listed below in the main body of your paper

In addition to the list printed below, the program has created the file /home/esp/scriptDevelopment/drFrankenstein/11_PCY_CHARMM/04_torsion_scanning/torsion_NH1-CT1-CG321-CG2R61/scans_PCY_conformer_1/PCY_conformer_1_opt/orca_opt.bibtex that contains the list in bibtex format
You can import this file easily into all common literature databanks and citation aid programs


List of essential papers. We consider these as the minimum necessary citations

  1. Bannwarth, C.; Ehlert, S.; Grimme, S.
     GFN2-xTB—An Accurate and Broadly Parametrized Self-Consistent Tight-Binding Quantum Chemical Method with Multipole Electrostatics and Density-Dependent Dispersion Contributions
     J. Chem. Theory Comput. 2019 15(3), 1652-1671
     doi.org/10.1021/acs.jctc.8b01176
  2. Neese, F.
     Software update: the ORCA program system, version 6.0
     WIRES Comput. Molec. Sci. 2025 15(1), e70019
     doi.org/10.1002/wcms.7019

List of papers to cite with high priority. The work reported in these papers was absolutely
necessary for this run to complete.
Our perspective: the developers of density functionals and basis sets usually get cited in chemistry papers
Good! But without the algorithms to do something with them, the functionals or basis sets would not do anything.
Hence, in our opinion, the algorithm design and method developments papers are equally worthy of getting cited

  1. Bannwarth, C.; Caldeweyher, E.; Ehlert, S.; Hansen, A.; Pracht, P.; Seibert, J.; Spicher, S.; Grimme, S.
     Extended tight-binding quantum chemistry methods
     WIRES Comput. Molec. Sci. 2020 11(2), e1493
     doi.org/10.1002/wcms.1493

List of suggested additional citations. These are papers that are important in the 'surrounding' of 
of this run, or papers that preceded the highly important papers. If you like your results we are grateful for a citation.

  1. Neese, F.
     The ORCA program system
     WIRES Comput. Molec. Sci. 2012 2(1), 73-78
     doi.org/10.1002/wcms.81
  2. Neese, F.
     Software update: the ORCA program system, version 4.0
     WIRES Comput. Molec. Sci. 2018 8(1), 1-6
     doi.org/10.1002/wcms.1327
  3. Neese, F.; Wennmohs, F.; Becker, U.; Riplinger, C.
     The ORCA quantum chemistry program package
     J. Chem. Phys. 2020 152(22), 224108
     doi.org/10.1063/5.0004608
  4. Neese, F.
     Software update: The ORCA program system—Version 5.0
     WIRES Comput. Molec. Sci. 2022 12(1), e1606
     doi.org/10.1002/wcms.1606

List of optional additional citations

  1. Neese, F.
     Approximate second-order SCF convergence for spin unrestricted wavefunctions
     Chem. Phys. Lett. 2000 325(1-3), 93-98
     doi.org/10.1016/s0009-2614(00)00662-x

Timings for individual modules:

Sum of individual times          ...        2.151 sec (=   0.036 min)
Geometry relaxation              ...        0.246 sec (=   0.004 min)  11.5 %
XTB module                       ...        1.905 sec (=   0.032 min)  88.5 %
                             ****ORCA TERMINATED NORMALLY****
TOTAL RUN TIME: 0 days 0 hours 0 minutes 2 seconds 268 msec
