47
Coordinates from ORCA-job /home/esp/scriptDevelopment/drFrankenstein/11_PCY_CHARMM/04_torsion_scanning/torsion_NH1-CT1-CG321-CG2R61/scans_PCY_conformer_24/PCY_conformer_24_forwards/orca_scan Relaxed Surface Scan Step 1 E -79.898716813470
  H      -0.916353     -1.769956      0.731006
  H      -0.541851     -4.120510      3.155476
  H      -0.408213      1.937449      2.835294
  H       0.049671      4.743521     -0.862200
  H       0.343908     -2.440224      1.810411
  H      -0.125455      3.870895      1.332427
  H       0.556376     -0.698641     -0.385453
  H       1.447702      4.012650     -1.647278
  H      -4.275843     -3.661062      5.180316
  H       0.811778      1.214351     -1.874371
  H      -4.622508     -1.500582      4.011269
  H      -0.609474      3.487158     -4.532620
  H      -2.233284     -4.978064      4.715704
  N       0.107632      3.744539     -3.844791
  C      -0.385562      3.581544     -2.587549
  C      -1.756052      3.091187     -2.602949
  C       0.409998      3.835330     -1.355408
  O      -2.305329      2.842131     -3.697661
  C       0.327786      2.676495     -0.392282
  C       0.014199      2.870991      0.949550
  C      -0.142041      1.795899      1.799365
  C       0.007175      0.495124      1.320981
  C       0.384330      0.294227     -0.001759
  C       0.535777      1.380037     -0.843707
  O      -0.224064     -0.500329      2.224972
  C      -0.548557     -1.807266      1.761791
  C      -1.625484     -2.355594      2.660825
  C      -1.445118     -3.557570      3.329302
  C      -2.395967     -4.036569      4.216366
  C      -3.541682     -3.300515      4.478851
  C      -3.740038     -2.096051      3.834807
  C      -2.799574     -1.634896      2.915368
  N      -3.096777     -0.409008      2.253216
  O      -3.745635      0.430329      2.867621
  O      -2.735956     -0.244191      1.093433
  C      -3.684321      2.325338     -1.298784
  N      -2.398075      2.965448     -1.423959
  H      -1.875350      3.090393     -0.570270
  H      -3.585484      1.391976     -0.740064
  H      -4.379392      2.982100     -0.776430
  H      -4.059010      2.116601     -2.299012
  C       1.338207      4.134963     -4.297652
  O       2.259779      4.449135     -3.550788
  C       1.465826      4.146874     -5.794316
  H       2.262054      3.463928     -6.083221
  H       0.543076      3.865215     -6.288366
  H       1.766194      5.143209     -6.111451
>
47
Coordinates from ORCA-job /home/esp/scriptDevelopment/drFrankenstein/11_PCY_CHARMM/04_torsion_scanning/torsion_NH1-CT1-CG321-CG2R61/scans_PCY_conformer_24/PCY_conformer_24_forwards/orca_scan Relaxed Surface Scan Step 2 E -79.899399129340
  H      -0.814260     -1.714536      0.696553
  H      -0.367394     -4.066944      3.105477
  H      -0.565856      1.997146      2.828723
  H      -0.068375      4.845397     -0.829397
  H       0.453761     -2.326013      1.802026
  H      -0.308629      3.949227      1.346166
  H       0.677369     -0.572133     -0.349838
  H       1.369980      4.164150     -1.598253
  H      -4.173370     -3.849716      5.034356
  H       0.910748      1.358437     -1.819749
  H      -4.614429     -1.698960      3.879734
  H      -0.597470      3.351766     -4.486133
  H      -2.045792     -5.040237      4.610757
  N       0.108772      3.632576     -3.796472
  C      -0.437621      3.651089     -2.552193
  C      -1.827478      3.220321     -2.559307
  C       0.336068      3.954503     -1.316945
  O      -2.372929      2.919061     -3.642039
  C       0.283118      2.786939     -0.358985
  C      -0.104260      2.959078      0.966404
  C      -0.245246      1.874046      1.805917
  C      -0.009838      0.584733      1.331451
  C       0.438852      0.409348      0.027652
  C       0.575380      1.505409     -0.803993
  O      -0.234442     -0.425499      2.220409
  C      -0.471449     -1.743389      1.736451
  C      -1.538290     -2.361578      2.601278
  C      -1.306041     -3.559337      3.261357
  C      -2.250005     -4.103632      4.117510
  C      -3.443200     -3.438579      4.356951
  C      -3.694361     -2.239947      3.720700
  C      -2.758712     -1.713054      2.831856
  N      -3.111009     -0.498641      2.175815
  O      -3.834895      0.287122      2.777911
  O      -2.721344     -0.291290      1.032202
  C      -3.795970      2.611967     -1.236204
  N      -2.487385      3.200658     -1.382296
  H      -1.962082      3.334973     -0.531683
  H      -3.729875      1.676987     -0.674649
  H      -4.456292      3.299874     -0.709796
  H      -4.190795      2.411227     -2.230316
  C       1.375404      3.898974     -4.245251
  O       2.295867      4.237994     -3.510978
  C       1.511851      3.728536     -5.731475
  H       1.267320      2.707548     -6.013986
  H       0.830606      4.401257     -6.246372
  H       2.533019      3.951150     -6.025337
>
47
Coordinates from ORCA-job /home/esp/scriptDevelopment/drFrankenstein/11_PCY_CHARMM/04_torsion_scanning/torsion_NH1-CT1-CG321-CG2R61/scans_PCY_conformer_24/PCY_conformer_24_forwards/orca_scan Relaxed Surface Scan Step 3 E -79.898959952870
  H      -0.743994     -1.731638      0.689854
  H      -0.066068     -3.986869      3.136954
  H      -0.866447      2.036756      2.759358
  H      -0.055358      4.929282     -0.817147
  H       0.565572     -2.173085      1.828154
  H      -0.562144      3.994126      1.296091
  H       0.735549     -0.487344     -0.292194
  H       1.365191      4.185265     -1.572517
  H      -3.908274     -4.211570      4.991476
  H       1.012319      1.448239     -1.747770
  H      -4.582556     -2.141704      3.801612
  H      -0.603434      3.288011     -4.444733
  H      -1.644683     -5.140477      4.622345
  N       0.119462      3.509190     -3.750831
  C      -0.454077      3.743308     -2.540906
  C      -1.894103      3.544474     -2.571902
  C       0.320434      4.025621     -1.301205
  O      -2.457389      3.274995     -3.653772
  C       0.212606      2.853174     -0.350631
  C      -0.295591      3.011682      0.934304
  C      -0.460324      1.924062      1.766242
  C      -0.125794      0.645229      1.324430
  C       0.427377      0.484166      0.059481
  C       0.585227      1.582980     -0.765320
  O      -0.362644     -0.366098      2.207965
  C      -0.422305     -1.707861      1.737098
  C      -1.423605     -2.440309      2.589933
  C      -1.061910     -3.594604      3.269067
  C      -1.950424     -4.240276      4.113999
  C      -3.219719     -3.721915      4.322774
  C      -3.600826     -2.568979      3.666921
  C      -2.717737     -1.941586      2.789647
  N      -3.199778     -0.785702      2.110067
  O      -4.035819     -0.094156      2.681272
  O      -2.801914     -0.538744      0.978152
  C      -3.974301      3.374794     -1.293638
  N      -2.573830      3.697237     -1.415608
  H      -2.052580      3.772343     -0.555802
  H      -4.108170      2.452821     -0.723206
  H      -4.499058      4.186779     -0.792293
  H      -4.377875      3.239740     -2.295457
  C       1.424328      3.531481     -4.166859
  O       2.367304      3.778849     -3.424629
  C       1.572882      3.214530     -5.627920
  H       1.177384      2.223750     -5.837452
  H       1.021862      3.938769     -6.222642
  H       2.624253      3.249273     -5.896751
>
47
Coordinates from ORCA-job /home/esp/scriptDevelopment/drFrankenstein/11_PCY_CHARMM/04_torsion_scanning/torsion_NH1-CT1-CG321-CG2R61/scans_PCY_conformer_24/PCY_conformer_24_forwards/orca_scan Relaxed Surface Scan Step 4 E -79.898692867020
  H      -1.060593     -1.912236      0.649537
  H       0.405436     -3.693486      3.132737
  H      -1.506883      2.024869      2.522097
  H       0.078266      4.964991     -0.766366
  H       0.404238     -1.901177      1.681270
  H      -0.948531      3.989027      1.152547
  H       0.429534     -0.506033     -0.323306
  H       1.423780      4.047463     -1.472585
  H      -3.052531     -4.807576      5.379501
  H       0.971160      1.438245     -1.682617
  H      -4.371045     -3.094739      4.161614
  H      -0.484992      3.426979     -4.465121
  H      -0.659241     -5.113359      4.827661
  N       0.210786      3.469956     -3.712070
  C      -0.371240      3.918162     -2.567594
  C      -1.795844      4.148687     -2.737596
  C       0.351462      4.037912     -1.271616
  O      -2.312610      4.022155     -3.868119
  C       0.027253      2.850278     -0.387638
  C      -0.664862      3.005217      0.808129
  C      -0.972181      1.912827      1.592126
  C      -0.596641      0.630840      1.192698
  C       0.108327      0.468670      0.005704
  C       0.409568      1.573599     -0.770739
  O      -0.949978     -0.377361      2.038635
  C      -0.677017     -1.720107      1.660009
  C      -1.367771     -2.616577      2.650498
  C      -0.644966     -3.575003      3.346710
  C      -1.244426     -4.370795      4.309606
  C      -2.585367     -4.201751      4.620724
  C      -3.324195     -3.248827      3.949899
  C      -2.727190     -2.472776      2.957119
  N      -3.567651     -1.549557      2.271206
  O      -4.530943     -1.094590      2.877925
  O      -3.331293     -1.271760      1.103182
  C      -3.934170      4.711164     -1.684966
  N      -2.504144      4.528669     -1.654093
  H      -2.067365      4.481823     -0.747625
  H      -4.439095      3.909652     -1.142921
  H      -4.194806      5.669266     -1.237097
  H      -4.251826      4.694591     -2.725996
  C       1.503019      3.132189     -4.013267
  O       2.417075      3.155654     -3.197415
  C       1.676234      2.720623     -5.448032
  H       1.039611      1.867975     -5.671013
  H       1.398318      3.540353     -6.105799
  H       2.714350      2.453888     -5.621532
>
47
Coordinates from ORCA-job /home/esp/scriptDevelopment/drFrankenstein/11_PCY_CHARMM/04_torsion_scanning/torsion_NH1-CT1-CG321-CG2R61/scans_PCY_conformer_24/PCY_conformer_24_forwards/orca_scan Relaxed Surface Scan Step 5 E -79.898064738890
  H      -0.696865     -1.980798      0.713842
  H       0.569411     -3.444991      3.502690
  H      -1.878071      1.941442      2.303840
  H       0.095469      4.982545     -0.720006
  H       0.573763     -1.738817      1.953471
  H      -1.324458      3.917308      0.959503
  H       0.739891     -0.427751     -0.100831
  H       1.394691      4.036327     -1.474405
  H      -3.033831     -4.931577      5.250148
  H       1.279667      1.529303     -1.439220
  H      -4.347416     -3.472044      3.733906
  H      -0.675059      3.284004     -4.346384
  H      -0.563228     -4.925587      5.098651
  N       0.050228      3.322056     -3.620912
  C      -0.433426      3.954266     -2.517291
  C      -1.815447      4.367993     -2.701516
  C       0.329020      4.055398     -1.241929
  O      -2.372072      4.181633     -3.804903
  C      -0.000194      2.860740     -0.366277
  C      -0.884830      2.965910      0.701013
  C      -1.195306      1.865918      1.472332
  C      -0.627694      0.623761      1.190477
  C       0.267933      0.512321      0.133897
  C       0.569158      1.624631     -0.632501
  O      -0.998661     -0.395174      2.015922
  C      -0.504701     -1.703159      1.758333
  C      -1.226076     -2.645372      2.682323
  C      -0.508173     -3.464103      3.542616
  C      -1.147740     -4.293898      4.449392
  C      -2.531893     -4.299394      4.536406
  C      -3.269010     -3.487832      3.698658
  C      -2.624486     -2.678634      2.763480
  N      -3.455525     -1.912976      1.896487
  O      -4.563869     -1.587344      2.308032
  O      -3.063588     -1.640860      0.769519
  C      -3.823752      5.373529     -1.720984
  N      -2.439080      4.975932     -1.673119
  H      -1.974515      5.027462     -0.781633
  H      -4.426426      4.751679     -1.056986
  H      -3.921525      6.417851     -1.426630
  H      -4.173476      5.247360     -2.744055
  C       1.297544      2.858594     -3.941445
  O       2.254461      2.903411     -3.177293
  C       1.365429      2.283657     -5.327869
  H       0.647729      1.473677     -5.430819
  H       1.127478      3.051345     -6.060089
  H       2.367541      1.908267     -5.511832
>
47
Coordinates from ORCA-job /home/esp/scriptDevelopment/drFrankenstein/11_PCY_CHARMM/04_torsion_scanning/torsion_NH1-CT1-CG321-CG2R61/scans_PCY_conformer_24/PCY_conformer_24_forwards/orca_scan Relaxed Surface Scan Step 6 E -79.897696724240
  H      -0.102193     -1.985399      0.977685
  H       0.535058     -3.001670      4.153324
  H      -2.428328      1.662707      1.699565
  H       0.176835      4.959138     -0.680016
  H       0.676720     -1.415568      2.487137
  H      -1.883764      3.634292      0.335396
  H       1.199332     -0.206898      0.435682
  H       1.365188      3.963812     -1.544725
  H      -3.082746     -5.113572      4.989187
  H       1.731488      1.742799     -0.920230
  H      -4.138392     -4.045919      3.014295
  H      -1.022446      3.209564     -4.191558
  H      -0.722326     -4.598794      5.528485
  N      -0.244300      3.205751     -3.523191
  C      -0.536529      4.004588     -2.459772
  C      -1.826558      4.656135     -2.615783
  C       0.319868      4.038841     -1.243919
  O      -2.501710      4.443752     -3.645982
  C      -0.022435      2.836252     -0.382310
  C      -1.200837      2.799814      0.356588
  C      -1.517256      1.699348      1.123300
  C      -0.661979      0.597676      1.163912
  C       0.514249      0.625061      0.425751
  C       0.820251      1.736868     -0.341368
  O      -1.066744     -0.433734      1.958075
  C      -0.282621     -1.619117      1.996684
  C      -1.055200     -2.641998      2.783011
  C      -0.483518     -3.244275      3.894868
  C      -1.196275     -4.139634      4.675965
  C      -2.518848     -4.430146      4.375989
  C      -3.113805     -3.837504      3.281187
  C      -2.384011     -2.963303      2.476253
  N      -3.049348     -2.436499      1.332723
  O      -4.269345     -2.319349      1.384856
  O      -2.401488     -2.158996      0.331787
  C      -3.510801      6.182005     -1.695986
  N      -2.246255      5.491792     -1.644012
  H      -1.660525      5.657971     -0.841829
  H      -4.138945      5.887357     -0.854501
  H      -3.356743      7.260823     -1.671225
  H      -4.003422      5.907270     -2.627042
  C       0.895446      2.531876     -3.870606
  O       1.918863      2.540259     -3.199017
  C       0.754046      1.784387     -5.166470
  H      -0.032510      1.039040     -5.075765
  H       0.491149      2.469125     -5.968691
  H       1.692731      1.292081     -5.401700
>
47
Coordinates from ORCA-job /home/esp/scriptDevelopment/drFrankenstein/11_PCY_CHARMM/04_torsion_scanning/torsion_NH1-CT1-CG321-CG2R61/scans_PCY_conformer_24/PCY_conformer_24_forwards/orca_scan Relaxed Surface Scan Step 7 E -79.897169048140
  H       0.242979     -1.876955      1.238322
  H       0.368168     -2.757380      4.507641
  H      -2.639396      1.408321      1.260905
  H       0.190275      4.942333     -0.673991
  H       0.627627     -1.180598      2.843712
  H      -2.101351      3.371501     -0.127990
  H       1.389866      0.042186      0.869660
  H       1.317135      3.934853     -1.598422
  H      -3.061508     -5.294753      4.723405
  H       1.913135      1.974057     -0.512281
  H      -3.840222     -4.393420      2.547181
  H      -1.264319      3.216026     -4.108627
  H      -0.928049     -4.481151      5.678897
  N      -0.482526      3.137514     -3.450061
  C      -0.609607      4.053531     -2.450318
  C      -1.791734      4.880852     -2.623852
  C       0.282982      4.030186     -1.261615
  O      -2.499211      4.734982     -3.644190
  C      -0.044894      2.821568     -0.405763
  C      -1.331743      2.648439      0.096154
  C      -1.643868      1.553227      0.871476
  C      -0.671204      0.595593      1.161045
  C       0.614826      0.762311      0.664082
  C       0.915572      1.867303     -0.115552
  O      -1.082889     -0.445698      1.939237
  C      -0.181470     -1.517405      2.184776
  C      -0.961534     -2.617832      2.849816
  C      -0.545191     -3.129108      4.070934
  C      -1.281396     -4.096297      4.735930
  C      -2.477207     -4.554047      4.202864
  C      -2.918295     -4.055096      2.994436
  C      -2.157959     -3.107528      2.309861
  N      -2.648985     -2.683986      1.042199
  O      -3.862127     -2.710443      0.861098
  O      -1.858155     -2.349867      0.169407
  C      -3.234924      6.659366     -1.749782
  N      -2.083522      5.794960     -1.675382
  H      -1.502467      5.869776     -0.856335
  H      -3.910046      6.467438     -0.915001
  H      -2.925523      7.704347     -1.730643
  H      -3.750051      6.450413     -2.685808
  C       0.533337      2.270153     -3.752113
  O       1.564074      2.186887     -3.099017
  C       0.244869      1.439466     -4.970815
  H      -0.626712      0.814960     -4.789280
  H       0.041103      2.079719     -5.825191
  H       1.101154      0.807302     -5.185001
>
47
Coordinates from ORCA-job /home/esp/scriptDevelopment/drFrankenstein/11_PCY_CHARMM/04_torsion_scanning/torsion_NH1-CT1-CG321-CG2R61/scans_PCY_conformer_24/PCY_conformer_24_forwards/orca_scan Relaxed Surface Scan Step 8 E -79.896396312700
  H       0.423055     -1.806801      1.387380
  H       0.257637     -2.650135      4.658572
  H      -2.743760      1.166561      0.967215
  H       0.100758      4.944494     -0.606189
  H       0.544700     -1.057523      3.010361
  H      -2.228417      3.160200     -0.391940
  H       1.421024      0.230813      1.147857
  H       1.237903      3.970475     -1.551059
  H      -2.938117     -5.482497      4.543096
  H       1.922469      2.189822     -0.202752
  H      -3.549692     -4.669954      2.279821
  H      -1.445379      3.224493     -4.004897
  H      -1.001450     -4.475911      5.710057
  N      -0.678880      3.102320     -3.335350
  C      -0.685508      4.104376     -2.411870
  C      -1.746268      5.063896     -2.666131
  C       0.199109      4.049427     -1.218909
  O      -2.470196      4.924052     -3.676287
  C      -0.110026      2.821964     -0.385705
  C      -1.426874      2.522051     -0.049610
  C      -1.725320      1.410403      0.707863
  C      -0.706318      0.565526      1.147803
  C       0.610801      0.862611      0.822428
  C       0.896942      1.982266      0.059286
  O      -1.108013     -0.504373      1.892928
  C      -0.143960     -1.479362      2.268716
  C      -0.889247     -2.642219      2.863838
  C      -0.565691     -3.105455      4.131355
  C      -1.282049     -4.130310      4.728202
  C      -2.367532     -4.696523      4.076519
  C      -2.715807     -4.247622      2.819022
  C      -1.970818     -3.241341      2.205609
  N      -2.353378     -2.872906      0.884249
  O      -3.534945     -2.992012      0.577178
  O      -1.499281     -2.495101      0.093103
  C      -2.940034      7.087915     -1.969723
  N      -1.912377      6.089938     -1.805919
  H      -1.326012      6.162149     -0.990707
  H      -3.631278      7.065116     -1.126648
  H      -2.495485      8.080285     -2.044999
  H      -3.481466      6.862659     -2.886954
  C       0.226413      2.098808     -3.556735
  O       1.249404      1.962261     -2.901383
  C      -0.171866      1.195779     -4.690254
  H      -1.103194      0.691180     -4.443980
  H      -0.317948      1.771774     -5.600217
  H       0.605390      0.454441     -4.848231
>
47
Coordinates from ORCA-job /home/esp/scriptDevelopment/drFrankenstein/11_PCY_CHARMM/04_torsion_scanning/torsion_NH1-CT1-CG321-CG2R61/scans_PCY_conformer_24/PCY_conformer_24_forwards/orca_scan Relaxed Surface Scan Step 9 E -79.895543063390
  H       0.538422     -1.719648      1.515963
  H       0.148785     -2.611163      4.756862
  H      -2.809247      0.984728      0.814243
  H      -0.074504      4.960180     -0.517597
  H       0.455058     -0.983169      3.147164
  H      -2.338737      3.010592     -0.513452
  H       1.385299      0.386067      1.360546
  H       1.127835      4.047079     -1.444955
  H      -2.774751     -5.697286      4.335916
  H       1.844011      2.371641      0.036166
  H      -3.244973     -4.909602      2.030564
  H      -1.633873      3.210428     -3.877459
  H      -1.043789     -4.547375      5.680306
  N      -0.875261      3.072018     -3.202538
  C      -0.777948      4.139893     -2.360937
  C      -1.712562      5.193829     -2.716939
  C       0.075698      4.082082     -1.145130
  O      -2.477306      5.030811     -3.693005
  C      -0.208848      2.837302     -0.331786
  C      -1.521196      2.436705     -0.101615
  C      -1.794621      1.307341      0.639327
  C      -0.753739      0.547433      1.171950
  C       0.558610      0.949143      0.959214
  C       0.819047      2.083905      0.210162
  O      -1.131517     -0.550196      1.889641
  C      -0.128961     -1.449614      2.344869
  C      -0.826947     -2.676158      2.864750
  C      -0.582386     -3.126491      4.154438
  C      -1.261869     -4.214334      4.678448
  C      -2.232192     -4.860762      3.927382
  C      -2.501503     -4.426467      2.645592
  C      -1.790981     -3.354173      2.107846
  N      -2.083063     -3.000941      0.759401
  O      -3.218513     -3.212913      0.346486
  O      -1.196387     -2.543252      0.050772
  C      -2.595356      7.437102     -2.275053
  N      -1.719341      6.328576     -1.987057
  H      -1.063979      6.444386     -1.231684
  H      -3.235608      7.645963     -1.417698
  H      -2.015510      8.327705     -2.518267
  H      -3.211987      7.162814     -3.129252
  C      -0.053297      1.986840     -3.355933
  O       0.982889      1.841151     -2.724404
  C      -0.558834      1.012420     -4.382153
  H      -1.502769      0.589469     -4.046047
  H      -0.719808      1.510836     -5.334336
  H       0.165531      0.213116     -4.504701
>
47
Coordinates from ORCA-job /home/esp/scriptDevelopment/drFrankenstein/11_PCY_CHARMM/04_torsion_scanning/torsion_NH1-CT1-CG321-CG2R61/scans_PCY_conformer_24/PCY_conformer_24_forwards/orca_scan Relaxed Surface Scan Step 10 E -79.894546273860
  H       0.581079     -1.694877      1.531462
  H       0.156621     -2.634030      4.752699
  H      -2.853952      0.872257      0.758717
  H      -0.317117      4.983355     -0.422526
  H       0.427899     -0.975505      3.165348
  H      -2.434315      2.938539     -0.523634
  H       1.343148      0.459872      1.439087
  H       1.012198      4.183245     -1.277881
  H      -2.648111     -5.816089      4.246140
  H       1.752885      2.485427      0.160796
  H      -3.099014     -5.024379      1.938051
  H      -1.722527      3.214839     -3.803108
  H      -0.984985     -4.619699      5.634664
  N      -0.988756      3.065592     -3.103685
  C      -0.835588      4.172385     -2.321965
  C      -1.661862      5.276012     -2.781178
  C      -0.058662      4.132028     -1.053228
  O      -2.407306      5.115327     -3.772057
  C      -0.305847      2.859917     -0.274578
  C      -1.605021      2.395773     -0.093587
  C      -1.850219      1.244007      0.622177
  C      -0.793377      0.525618      1.179957
  C       0.505105      0.990677      1.017780
  C       0.736993      2.147914      0.294306
  O      -1.143919     -0.597833      1.871558
  C      -0.116831     -1.458904      2.345633
  C      -0.777873     -2.715937      2.840459
  C      -0.543347     -3.169320      4.130930
  C      -1.194496     -4.285195      4.631472
  C      -2.126712     -4.957812      3.855565
  C      -2.385237     -4.521536      2.572161
  C      -1.701476     -3.420695      2.058283
  N      -1.977340     -3.065128      0.706879
  O      -3.098673     -3.303607      0.271142
  O      -1.089654     -2.578758      0.019323
  C      -2.346086      7.615530     -2.518436
  N      -1.586143      6.454031     -2.127213
  H      -0.935146      6.564072     -1.367263
  H      -2.974004      7.951431     -1.693106
  H      -1.679813      8.425028     -2.817774
  H      -2.974631      7.335177     -3.361885
  C      -0.208613      1.943105     -3.205342
  O       0.834339      1.801908     -2.585192
  C      -0.768484      0.926771     -4.159782
  H      -1.729575      0.574995     -3.791845
  H      -0.911590      1.366248     -5.143417
  H      -0.084945      0.086234     -4.229897
>
47
Coordinates from ORCA-job /home/esp/scriptDevelopment/drFrankenstein/11_PCY_CHARMM/04_torsion_scanning/torsion_NH1-CT1-CG321-CG2R61/scans_PCY_conformer_24/PCY_conformer_24_forwards/orca_scan Relaxed Surface Scan Step 11 E -79.893431309680
  H       0.622011     -1.663639      1.560290
  H       0.146591     -2.630703      4.765971
  H      -2.906393      0.752649      0.700508
  H      -0.601419      4.995740     -0.346870
  H       0.383624     -0.954118      3.188234
  H      -2.548105      2.861859     -0.530599
  H       1.280389      0.537219      1.519416
  H       0.857911      4.321887     -1.092312
  H      -2.503782     -5.928746      4.176136
  H       1.631071      2.603559      0.291084
  H      -2.922572     -5.151795      1.856905
  H      -1.795963      3.248162     -3.764288
  H      -0.932888     -4.666209      5.612426
  N      -1.102777      3.073870     -3.029790
  C      -0.898111      4.199379     -2.287400
  C      -1.594617      5.347415     -2.843359
  C      -0.220264      4.177061     -0.960832
  O      -2.307243      5.204236     -3.860388
  C      -0.427489      2.882501     -0.212690
  C      -1.707559      2.352107     -0.082586
  C      -1.918739      1.176662      0.604638
  C      -0.846423      0.501436      1.186430
  C       0.431468      1.033646      1.078442
  C       0.629117      2.213957      0.382730
  O      -1.163567     -0.651358      1.845596
  C      -0.111533     -1.462280      2.352223
  C      -0.728072     -2.749128      2.827462
  C      -0.511227     -3.194525      4.123740
  C      -1.127866     -4.338585      4.604042
  C      -2.008262     -5.048399      3.801290
  C      -2.248735     -4.620715      2.511357
  C      -1.597413     -3.491219      2.018583
  N      -1.848129     -3.144018      0.659812
  O      -2.950880     -3.413045      0.196166
  O      -0.955524     -2.635747     -0.004852
  C      -2.053130      7.753210     -2.733005
  N      -1.435024      6.545870     -2.242635
  H      -0.788761      6.637714     -1.476175
  H      -2.668484      8.203547     -1.954159
  H      -1.295817      8.468922     -3.054273
  H      -2.679873      7.486750     -3.582254
  C      -0.379698      1.909398     -3.084822
  O       0.656608      1.743933     -2.460372
  C      -0.991666      0.884095     -3.996569
  H      -1.985401      0.625162     -3.639115
  H      -1.075827      1.276642     -5.006657
  H      -0.370539     -0.006350     -4.001471
>
47
Coordinates from ORCA-job /home/esp/scriptDevelopment/drFrankenstein/11_PCY_CHARMM/04_torsion_scanning/torsion_NH1-CT1-CG321-CG2R61/scans_PCY_conformer_24/PCY_conformer_24_forwards/orca_scan Relaxed Surface Scan Step 12 E -79.892627553660
  H       0.650729     -1.266810      1.596402
  H       0.396193     -3.189281      4.357342
  H      -2.905320      0.999788      1.231630
  H      -0.834693      5.145609     -0.381148
  H       0.555522     -1.081212      3.375020
  H      -2.627410      3.037066     -0.131946
  H       1.313363      0.883638      1.889374
  H       0.724200      4.506733     -0.934339
  H      -2.452828     -6.075028      3.012124
  H       1.586187      2.885673      0.530104
  H      -3.029504     -4.590673      1.109319
  H      -1.880984      2.814560     -3.417085
  H      -0.705433     -5.369198      4.615328
  N      -1.194264      2.782500     -2.657737
  C      -0.945130      4.035733     -2.178002
  C      -1.570232      5.066966     -2.988807
  C      -0.342931      4.280894     -0.833441
  O      -2.258128      4.744414     -3.980817
  C      -0.494935      3.093400      0.082316
  C      -1.762315      2.566420      0.311648
  C      -1.928214      1.429752      1.072247
  C      -0.818136      0.790504      1.619872
  C       0.443682      1.343550      1.447987
  C       0.595516      2.486981      0.683538
  O      -1.070309     -0.361112      2.313764
  C      -0.016132     -1.304536      2.466916
  C      -0.643444     -2.668262      2.573437
  C      -0.339207     -3.507419      3.635551
  C      -0.968069     -4.732926      3.785665
  C      -1.947508     -5.131427      2.888337
  C      -2.276023     -4.309851      1.828989
  C      -1.612065     -3.096712      1.657794
  N      -1.962167     -2.328602      0.510158
  O      -3.125644     -2.374926      0.125456
  O      -1.096326     -1.691164     -0.077887
  C      -1.908773      7.461154     -3.393506
  N      -1.374164      6.355791     -2.636463
  H      -0.736285      6.575122     -1.888985
  H      -2.495248      8.110538     -2.744045
  H      -1.105714      8.039073     -3.852382
  H      -2.548245      7.053046     -4.174240
  C      -0.470627      1.625670     -2.486023
  O       0.629052      1.619731     -1.955452
  C      -1.145197      0.392861     -3.011239
  H      -2.147357      0.595750     -3.370692
  H      -0.542893     -0.038637     -3.807367
  H      -1.183569     -0.337132     -2.202708
>
47
Coordinates from ORCA-job /home/esp/scriptDevelopment/drFrankenstein/11_PCY_CHARMM/04_torsion_scanning/torsion_NH1-CT1-CG321-CG2R61/scans_PCY_conformer_24/PCY_conformer_24_forwards/orca_scan Relaxed Surface Scan Step 13 E -79.891359069910
  H       0.656361     -1.256446      1.577960
  H       0.466601     -3.143828      4.370996
  H      -2.968576      0.898873      1.183236
  H      -1.092717      5.129051     -0.349615
  H       0.546955     -1.045876      3.353320
  H      -2.746127      2.973330     -0.134178
  H       1.239474      0.929325      1.912589