75
Coordinates from ORCA-job /home/esp/scriptDevelopment/drFrankenstein/outputs/torsion_2-10-9-8/conformer_2_forwards/orca_scan Relaxed Surface Scan Step 1 E -133.310064029900
  C      19.153849    -75.202929    -10.304178
  O      19.785558    -74.514322    -11.077711
  C      19.782882    -76.282282     -9.447175
  H      20.535024    -75.830171     -8.804149
  H      19.044497    -76.797973     -8.840972
  H      20.289662    -76.993376    -10.095755
  N      17.823994    -75.044209    -10.091793
  C      17.012348    -74.179541    -10.917578
  C      15.993897    -73.390937    -10.075812
  O      15.014837    -72.858495    -10.552778
  C      16.304094    -74.991336    -12.022374
  C      15.780893    -74.119133    -13.152202
  O      15.182936    -75.700724    -11.491763
  O      16.131354    -77.991332    -11.588498
  O      15.930195    -76.919747     -9.281527
  O      13.832438    -77.520147    -10.541151
  C      16.809161    -79.086979    -11.022239
  C      14.970997    -80.594414    -11.890118
  O      15.107423    -79.980442     -9.520481
  C      14.032086    -81.789970    -11.607355
  O      15.754087    -80.866950    -13.026179
  C      13.155554    -82.021353    -12.873596
  O      13.193152    -81.598762    -10.505109
  N      11.746406    -81.982995    -12.560594
  C      11.023603    -83.109893    -12.278148
  C      11.167075    -80.757220    -12.469061
  P      15.301622    -76.997335    -10.611906
  C       9.622014    -82.974146    -12.073224
  C       9.734764    -80.717085    -12.287445
  C      11.581088    -84.387418    -12.180656
  N      11.927094    -79.696294    -12.572921
  C       8.844285    -84.114812    -11.817605
  C      10.804545    -85.496049    -11.912332
  C      11.384151    -78.468470    -12.479213
  C       9.083176    -79.382930    -12.326393
  C       9.406583    -85.364095    -11.738827
  C      11.444367    -86.841193    -11.798454
  C       8.560885    -86.565263    -11.460869
  C      15.864095    -80.248348    -10.676537
  N       9.009102    -81.776541    -12.119113
  N       9.993454    -78.357450    -12.433979
  O      12.057314    -77.449002    -12.434144
  O       7.894732    -79.186951    -12.270479
  H      17.307750    -75.747255     -9.570351
  H      17.696085    -73.470162    -11.401876
  H      17.023774    -75.724020    -12.410862
  H      16.608442    -73.612415    -13.640187
  H      15.088414    -73.388720    -12.744938
  H      15.259740    -74.740596    -13.874831
  H      13.258296    -77.390490    -11.342569
  H      17.315007    -78.776182    -10.101399
  H      17.541807    -79.404315    -11.767686
  H      14.760677    -79.076493     -9.560626
  H      14.353012    -79.727368    -12.144984
  H      16.349420    -81.601447    -12.831974
  H      14.662285    -82.685500    -11.437049
  H      13.687565    -81.081186     -9.843246
  H      13.392527    -82.967125    -13.356573
  H      13.350430    -81.205620    -13.573019
  H       7.786180    -83.962966    -11.675256
  H       9.624227    -77.412185    -12.420016
  H      11.028687    -87.523641    -12.538664
  H      11.254281    -87.269524    -10.815417
  H      12.518582    -86.778352    -11.947810
  H       8.876269    -87.051233    -10.538618
  H       8.650664    -87.293117    -12.266063
  H       7.517093    -86.281894    -11.363706
  H      16.482713    -81.121987    -10.421700
  H      12.646064    -84.522058    -12.279462
  N      16.305214    -73.324952     -8.769409
  C      15.452272    -72.686084     -7.799268
  H      17.121891    -73.814226     -8.437966
  H      16.001486    -71.913531     -7.258419
  H      14.623514    -72.232275     -8.340130
  H      15.062358    -73.417068     -7.088530
>
75
Coordinates from ORCA-job /home/esp/scriptDevelopment/drFrankenstein/outputs/torsion_2-10-9-8/conformer_2_forwards/orca_scan Relaxed Surface Scan Step 2 E -133.311958362530
  C      18.289947    -74.912745     -8.410296
  O      18.838714    -73.820703     -8.362395
  C      18.487895    -75.987388     -7.369945
  H      17.732443    -75.864913     -6.595623
  H      18.382393    -76.976270     -7.805469
  H      19.467418    -75.874946     -6.913317
  N      17.433971    -75.251154     -9.389430
  C      17.141207    -74.394928    -10.522463
  C      16.061647    -73.352399    -10.134265
  O      14.928461    -73.350889    -10.561891
  C      16.753031    -75.256792    -11.731889
  C      16.507293    -74.421247    -12.979398
  O      15.560523    -75.986590    -11.457995
  O      16.162449    -78.200088    -12.444087
  O      16.466274    -77.890269     -9.936191
  O      14.130317    -77.916942    -10.893910
  C      16.953657    -79.364740    -12.358320
  C      14.909049    -80.774670    -12.774974
  O      15.854778    -80.555663    -10.522460
  C      14.009839    -81.938806    -12.302175
  O      15.286350    -80.970110    -14.117133
  C      12.821607    -82.062092    -13.301014
  O      13.498334    -81.752952    -11.015375
  N      11.547036    -81.994778    -12.626214
  C      10.880986    -83.109395    -12.196215
  C      11.061129    -80.756685    -12.346621
  P      15.612710    -77.514219    -11.084747
  C       9.589595    -82.940789    -11.623490
  C       9.728920    -80.681394    -11.792391
  C      11.394788    -84.405472    -12.289704
  N      11.807401    -79.716330    -12.614435
  C       8.863871    -84.067483    -11.205348
  C      10.674841    -85.500637    -11.858340
  C      11.361933    -78.478446    -12.331340
  C       9.142454    -79.327307    -11.620903
  C       9.378831    -85.334748    -11.316035
  C      11.269966    -86.867466    -11.958604
  C       8.591201    -86.520797    -10.859036
  C      16.167781    -80.597080    -11.893583
  N       9.032307    -81.724449    -11.470336
  N      10.033165    -78.326163    -11.929678
  O      12.071567    -77.486770    -12.412643
  O       8.016484    -79.098357    -11.254094
  H      16.987181    -76.161027     -9.371973
  H      18.060115    -73.843893    -10.767036
  H      17.571033    -75.969141    -11.909604
  H      17.383047    -73.821691    -13.211850
  H      15.652607    -73.775027    -12.803378
  H      16.284287    -75.078304    -13.815354
  H      13.465583    -77.625902    -11.571021
  H      17.784192    -79.202427    -11.661901
  H      17.337729    -79.529609    -13.367656
  H      16.003929    -79.658755    -10.170586
  H      14.311278    -79.858570    -12.753316
  H      15.842415    -81.757159    -14.175510
  H      14.607480    -82.871614    -12.331848
  H      14.193730    -81.321752    -10.486915
  H      12.876569    -82.984191    -13.876757
  H      12.865625    -81.210388    -13.983216
  H       7.887481    -83.891085    -10.782872
  H       9.720511    -77.371814    -11.783125
  H      10.647083    -87.508973    -12.580648
  H      11.331879    -87.327100    -10.973268
  H      12.267587    -86.829840    -12.387037
  H       9.120247    -87.050716    -10.068141
  H       8.436953    -87.219562    -11.680105
  H       7.621845    -86.211001    -10.479999
  H      16.819269    -81.476720    -12.043078
  H      12.390001    -84.565691    -12.671691
  N      16.548679    -72.449910     -9.267222
  C      15.727536    -71.414796     -8.689403
  H      17.488594    -72.581012     -8.901248
  H      16.174059    -70.435747     -8.869591
  H      14.747888    -71.461357     -9.162630
  H      15.617026    -71.562166     -7.613252
>
75
Coordinates from ORCA-job /home/esp/scriptDevelopment/drFrankenstein/outputs/torsion_2-10-9-8/conformer_2_forwards/orca_scan Relaxed Surface Scan Step 3 E -133.313013602430
  C      17.722820    -74.990102     -8.176966
  O      17.770298    -73.782407     -8.042495
  C      18.052140    -75.976363     -7.080590
  H      17.156013    -76.532301     -6.814647
  H      18.805039    -76.680495     -7.424553
  H      18.417717    -75.442106     -6.208595
  N      17.398273    -75.580671     -9.349317
  C      16.926361    -74.802711    -10.468985
  C      15.402323    -74.896458    -10.515244
  O      14.854978    -75.985839    -10.504772
  C      17.499399    -75.344882    -11.801964
  C      17.786598    -74.215449    -12.783381
  O      16.588609    -76.215896    -12.450381
  O      16.915376    -78.582930    -12.955347
  O      16.700203    -77.994383    -10.511525
  O      14.711689    -77.889652    -12.273418
  C      17.500332    -79.825696    -12.636905
  C      15.226705    -80.897609    -12.855416
  O      16.346131    -80.641667    -10.652364
  C      14.034701    -81.596073    -12.161328
  O      15.466503    -81.508720    -14.102888
  C      12.765616    -81.299869    -13.007307
  O      13.781827    -81.170541    -10.855359
  N      11.590853    -81.311394    -12.166778
  C      10.931881    -82.462282    -11.836965
  C      11.253435    -80.130377    -11.578339
  P      16.186746    -77.638216    -11.857912
  C       9.838668    -82.380696    -10.930922
  C      10.136625    -80.146140    -10.660095
  C      11.269310    -83.719662    -12.347627
  N      11.934356    -79.058148    -11.885647
  C       9.126841    -83.543316    -10.595841
  C      10.562689    -84.853239    -12.003365
  C      11.667308    -77.883713    -11.290234
  C       9.758273    -78.854977    -10.030766
  C       9.465968    -84.767956    -11.114272
  C      10.960050    -86.177749    -12.570558
  C       8.694861    -85.994249    -10.742135
  C      16.536397    -80.860928    -12.027818
  N       9.469891    -81.215799    -10.363580
  N      10.582862    -77.822302    -10.405122
  O      12.322816    -76.873987    -11.489242
  O       8.831429    -78.695382     -9.273502
  H      17.203706    -76.576529     -9.415136
  H      17.264665    -73.774895    -10.301340
  H      18.423711    -75.889976    -11.570613
  H      18.528660    -73.538456    -12.369970
  H      16.869970    -73.670868    -12.994315
  H      18.160050    -74.632259    -13.714454
  H      13.972649    -77.368356    -11.886039
  H      18.326237    -79.684774    -11.929488
  H      17.890392    -80.202718    -13.586108
  H      16.421587    -79.676793    -10.470416
  H      14.937565    -79.869515    -13.080035
  H      15.808188    -82.399754    -13.954271
  H      14.226618    -82.688468    -12.154868
  H      14.643883    -80.950957    -10.450248
  H      12.662221    -82.002482    -13.831486
  H      12.846579    -80.283137    -13.394795
  H       8.304073    -83.431563     -9.907670
  H      10.400241    -76.918042     -9.983137
  H      10.133076    -86.616702    -13.127056
  H      11.221097    -86.870107    -11.771339
  H      11.812772    -86.078516    -13.236491
  H       9.344801    -86.726248    -10.264637
  H       8.264232    -86.460969    -11.627074
  H       7.891161    -85.744572    -10.055760
  H      17.021400    -81.848602    -12.104567
  H      12.105534    -83.822015    -13.020375
  N      14.734007    -73.740316    -10.587989
  C      13.290624    -73.695121    -10.660035
  H      15.231289    -72.868657    -10.492706
  H      12.981363    -73.025661    -11.462314
  H      12.938811    -74.705437    -10.869356
  H      12.865927    -73.347199     -9.716443
>
75
Coordinates from ORCA-job /home/esp/scriptDevelopment/drFrankenstein/outputs/torsion_2-10-9-8/conformer_2_forwards/orca_scan Relaxed Surface Scan Step 4 E -133.333116575650
  C      15.099257    -76.903002     -7.370848
  O      16.263718    -76.879906     -7.013186
  C      13.981961    -77.511666     -6.561329
  H      13.467039    -76.718685     -6.022603
  H      13.265706    -78.005553     -7.210604
  H      14.395230    -78.211365     -5.840535
  N      14.688733    -76.348237     -8.531339
  C      15.606462    -75.751142     -9.466513
  C      14.800354    -74.913230    -10.462489
  O      13.587095    -74.990050    -10.525058
  C      16.470269    -76.840246    -10.168070
  C      17.911537    -76.815351     -9.687838
  O      16.481917    -76.701527    -11.593042
  O      15.893762    -78.021422    -13.662869
  O      14.367642    -78.125621    -11.596608
  O      14.652218    -76.008551    -13.120352
  C      16.505463    -79.287749    -13.529473
  C      14.413438    -80.366620    -14.527671
  O      14.980928    -80.668432    -12.174793
  C      13.446498    -81.590871    -14.461104
  O      14.975838    -80.264949    -15.810883
  C      12.037508    -81.248857    -13.910750
  O      14.011203    -82.703269    -13.821005
  N      11.991024    -80.955774    -12.491727
  C      11.974856    -81.946215    -11.539986
  C      11.934090    -79.649218    -12.116204
  P      15.241388    -77.262413    -12.421750
  C      11.948968    -81.565886    -10.170281
  C      11.922830    -79.360802    -10.702334
  C      11.964878    -83.311361    -11.841247
  N      11.921904    -78.731602    -13.048278
  C      11.927676    -82.555048     -9.174733
  C      11.940478    -84.270792    -10.849753
  C      11.978705    -77.431687    -12.704059
  C      11.945960    -77.932858    -10.309999
  C      11.922980    -83.891132     -9.488087
  C      11.935405    -85.717454    -11.222270
  C      11.899520    -84.928216     -8.411221
  C      15.526156    -80.472707    -13.457057
  N      11.942003    -80.274460     -9.786442
  N      11.836934    -77.074066    -11.366771
  O      12.169913    -76.552838    -13.536236
  O      12.056749    -77.545796     -9.167709
  H      13.724427    -76.450138     -8.834226
  H      16.279018    -75.084950     -8.909521
  H      16.011595    -77.805308     -9.925381
  H      17.912793    -76.915152     -8.605190
  H      18.388087    -75.879662     -9.970530
  H      18.469367    -77.636344    -10.130611
  H      13.702317    -76.090387    -13.393019
  H      17.138783    -79.314475    -12.635947
  H      17.128794    -79.391767    -14.421369
  H      14.679215    -79.795324    -11.843876
  H      13.851117    -79.440733    -14.378250
  H      15.484530    -81.065181    -15.992833
  H      13.281140    -81.907253    -15.499959
  H      14.290894    -82.425631    -12.934763
  H      11.372104    -82.089987    -14.114691
  H      11.675227    -80.358316    -14.426590
  H      11.913172    -82.216645     -8.150958
  H      12.019282    -76.093398    -11.148038
  H      11.039449    -86.206222    -10.841443
  H      12.795330    -86.223787    -10.786444
  H      11.970317    -85.841694    -12.300720
  H      12.780490    -85.565483     -8.474379
  H      11.022146    -85.565778     -8.510913
  H      11.879722    -84.460145     -7.431469
  H      16.123623    -81.374196    -13.665110
  H      12.003412    -83.642016    -12.865990
  N      15.532685    -74.036002    -11.161212
  C      14.962193    -73.171179    -12.167773
  H      16.535642    -74.134332    -11.155720
  H      15.202399    -73.526803    -13.170107
  H      13.882049    -73.180697    -12.039265
  H      15.340488    -72.157394    -12.033595
>
75
Coordinates from ORCA-job /home/esp/scriptDevelopment/drFrankenstein/outputs/torsion_2-10-9-8/conformer_2_forwards/orca_scan Relaxed Surface Scan Step 5 E -133.327567391420
  C      15.099897    -77.738996     -7.948567
  O      16.264577    -77.858227     -7.606636
  C      13.994091    -78.650582     -7.477307
  H      13.106285    -78.080876     -7.221827
  H      13.728268    -79.331341     -8.283477
  H      14.338435    -79.224842     -6.621834
  N      14.690035    -76.789525     -8.814191
  C      15.583023    -75.871470     -9.477113
  C      14.727036    -74.951333    -10.365168
  O      13.528845    -74.867088    -10.164217
  C      16.733118    -76.618818    -10.189609
  C      18.100246    -76.065680     -9.819417
  O      16.631602    -76.582130    -11.622166
  O      15.996355    -78.062722    -13.554570
  O      14.468817    -77.971052    -11.486738
  O      14.800126    -75.983925    -13.155893
  C      16.578409    -79.328376    -13.318454
  C      14.534441    -80.408596    -14.391873
  O      14.923204    -80.577479    -11.989130
  C      13.525598    -81.596315    -14.325589
  O      15.190643    -80.403891    -15.633919
  C      12.106826    -81.190211    -13.850082
  O      14.028790    -82.700371    -13.622900
  N      12.004522    -80.861153    -12.442441
  C      11.930466    -81.829361    -11.470945
  C      11.960813    -79.545132    -12.098626
  P      15.368195    -77.198456    -12.370512
  C      11.870418    -81.418039    -10.111200
  C      11.854125    -79.225858    -10.697032
  C      11.895689    -83.200785    -11.741001
  N      12.038474    -78.645540    -13.046082
  C      11.818470    -82.382861     -9.092826
  C      11.834572    -84.136253    -10.728423
  C      12.078673    -77.338955    -12.725710
  C      11.799401    -77.791824    -10.330968
  C      11.802315    -83.725426     -9.375618
  C      11.806671    -85.590533    -11.067919
  C      11.745974    -84.737052     -8.276325
  C      15.564162    -80.480703    -13.237954
  N      11.839574    -80.118865     -9.759710
  N      11.843898    -76.953774    -11.411181
  O      12.321852    -76.477369    -13.563666
  O      11.726343    -77.382044     -9.195542
  H      13.702846    -76.669948     -9.011684
  H      16.039505    -75.210960     -8.720319
  H      16.677553    -77.665272     -9.879065
  H      18.272727    -76.261014     -8.764991
  H      18.157907    -74.996061    -10.007985
  H      18.867932    -76.565572    -10.404090
  H      13.857740    -76.085202    -13.449295
  H      17.161803    -79.317416    -12.391486
  H      17.245948    -79.495595    -14.167746
  H      14.680873    -79.670942    -11.702286
  H      13.994738    -79.459133    -14.338082
  H      15.677189    -81.232114    -15.732001
  H      13.395592    -81.945109    -15.359037
  H      14.264080    -82.403393    -12.730855
  H      11.420480    -82.011655    -14.065474
  H      11.801635    -80.300511    -14.403003
  H      11.784031    -82.019933     -8.077904
  H      11.967166    -75.965753    -11.189573
  H      10.896081    -86.053065    -10.689074
  H      12.650209    -86.102919    -10.607846
  H      11.854613    -85.740558    -12.142557
  H      12.617330    -85.389434     -8.311952
  H      10.859945    -85.362678     -8.374901
  H      11.719389    -84.246527     -7.307825
  H      16.146323    -81.409160    -13.348945
  H      11.945163    -83.556520    -12.756796
  N      15.410723    -74.117363    -11.160606
  C      14.745427    -73.149164    -12.002745
  H      16.363703    -74.343518    -11.397713
  H      14.709845    -73.489421    -13.038331
  H      13.730582    -73.024766    -11.630371
  H      15.275653    -72.198494    -11.946103
>
75
Coordinates from ORCA-job /home/esp/scriptDevelopment/drFrankenstein/outputs/torsion_2-10-9-8/conformer_2_forwards/orca_scan Relaxed Surface Scan Step 6 E -133.327833737740
  C      15.969195    -77.974782     -8.985284
  O      17.022053    -78.300085     -9.516671
  C      15.152875    -78.971474     -8.195105
  H      14.147182    -78.620073     -7.991268
  H      15.110495    -79.907048     -8.747985
  H      15.665534    -79.162342     -7.253400
  N      15.475545    -76.724419     -8.970741
  C      15.913651    -75.542387     -9.694749
  C      14.620719    -74.834728    -10.163272
  O      13.645007    -74.856357     -9.428313
  C      16.970270    -75.789452    -10.782104
  C      17.862812    -74.570664    -10.997579
  O      16.365136    -76.111551    -12.036706
  O      16.806406    -78.482726    -12.773114
  O      14.734652    -78.007143    -11.303276
  O      14.981591    -77.147785    -13.726353
  C      16.986213    -79.777535    -12.222298
  C      15.095297    -80.582123    -13.755714
  O      14.881251    -80.677607    -11.333703
  C      13.890842    -81.563320    -13.897521
  O      15.999229    -80.789287    -14.810951
  C      12.494402    -80.914941    -13.674854
  O      14.069960    -82.731854    -13.143277
  N      12.127005    -80.737767    -12.284828
  C      11.757719    -81.798961    -11.493756
  C      12.143454    -79.478477    -11.766301
  P      15.642375    -77.497023    -12.353248
  C      11.561920    -81.570437    -10.104604
  C      11.947914    -79.349149    -10.341849
  C      11.537936    -83.091248    -11.981257
  N      12.357727    -78.465381    -12.564789
  C      11.201349    -82.637951     -9.267414
  C      11.169238    -84.126335    -11.147242
  C      12.429243    -77.217727    -12.057026
  C      12.073056    -77.989104     -9.765440
  C      11.006229    -83.903509     -9.760458
  C      10.942845    -85.489053    -11.716079
  C      10.619448    -85.026351     -8.851763
  C      15.806791    -80.748251    -12.393168
  N      11.705556    -80.348770     -9.557072
  N      12.147745    -77.006054    -10.715458
  O      12.728567    -76.260405    -12.763827
  O      12.105856    -77.751701     -8.580684
  H      14.548789    -76.588456     -8.576567
  H      16.365370    -74.855317     -8.957137
  H      17.587319    -76.635901    -10.468747
  H      18.520790    -74.448067    -10.141690
  H      17.283465    -73.660171    -11.127877
  H      18.469378    -74.731684    -11.884562
  H      14.081695    -76.765249    -13.595241
  H      17.203629    -79.692666    -11.151973
  H      17.861609    -80.165796    -12.748274
  H      14.733928    -79.723333    -11.159835
  H      14.746657    -79.553119    -13.865659
  H      16.353698    -81.684970    -14.743233
  H      13.896526    -81.889139    -14.946379
  H      14.173618    -82.470704    -12.216284
  H      11.740625    -81.540931    -14.157134
  H      12.486855    -79.923275    -14.129009
  H      11.074621    -82.414875     -8.220060
  H      12.321456    -76.065814    -10.352862
  H       9.923370    -85.819840    -11.521563
  H      11.615618    -86.208835    -11.252287
  H      11.114935    -85.496485    -12.788414
  H      11.362060    -85.822120     -8.889309
  H       9.662964    -85.451911     -9.152270
  H      10.537249    -84.676253     -7.827003
  H      16.236034    -81.761421    -12.346301
  H      11.671666    -83.306351    -13.028164
  N      14.670574    -74.115941    -11.288730
  C      13.510912    -73.394554    -11.770567
  H      15.384727    -74.323923    -11.969859
  H      12.935829    -74.007420    -12.466326
  H      12.887867    -73.141292    -10.914323
  H      13.841873    -72.483848    -12.266860
>
75
Coordinates from ORCA-job /home/esp/scriptDevelopment/drFrankenstein/outputs/torsion_2-10-9-8/conformer_2_forwards/orca_scan Relaxed Surface Scan Step 7 E -133.324885888840
  C      15.807763    -78.116105     -9.041526
  O      16.853429    -78.428534     -9.593348
  C      14.982009    -79.124700     -8.277399
  H      13.940151    -78.831240     -8.206219
  H      15.062018    -80.094284     -8.762348
  H      15.396520    -79.210045     -7.273655
  N      15.317211    -76.865964     -9.001777
  C      15.891968    -75.646009     -9.550027
  C      14.690498    -74.712392     -9.830377
  O      13.986825    -74.363497     -8.900915
  C      16.889915    -75.865090    -10.697668
  C      17.695103    -74.599130    -10.976824
  O      16.252079    -76.237972    -11.919317
  O      16.850974    -78.590619    -12.652917
  O      14.627556    -78.202145    -11.374450
  O      15.103368    -77.290732    -13.741772
  C      17.002766    -79.926098    -12.200159
  C      15.124904    -80.635032    -13.805572
  O      14.880023    -80.858037    -11.392294
  C      13.900965    -81.581947    -14.002333
  O      16.038227    -80.818267    -14.857166
  C      12.513986    -80.911341    -13.784975
  O      14.042250    -82.783465    -13.293925
  N      12.158601    -80.663873    -12.401719
  C      11.821884    -81.686833    -11.547562
  C      12.158996    -79.379859    -11.951591
  P      15.632253    -77.649371    -12.309305
  C      11.675869    -81.393078    -10.164576
  C      12.005370    -79.181106    -10.529849
  C      11.587714    -83.000833    -11.964578
  N      12.344461    -78.404818    -12.805751
  C      11.362831    -82.422376     -9.262855
  C      11.261880    -83.997596    -11.068094
  C      12.436871    -77.139901    -12.359207
  C      12.120102    -77.794854    -10.024482
  C      11.159855    -83.711412     -9.686893
  C      11.017150    -85.385414    -11.563236
  C      10.824016    -84.793107     -8.710848
  C      15.817344    -80.874241    -12.443708
  N      11.818933    -80.143738     -9.685214
  N      12.137791    -76.862397    -11.026354
  O      12.784305    -76.215915    -13.084647
  O      12.190128    -77.492060     -8.856134
  H      14.433114    -76.718663     -8.528934
  H      16.459326    -75.151894     -8.741752
  H      17.567044    -76.671857    -10.404940
  H      18.355907    -74.392929    -10.139671
  H      17.045503    -73.742163    -11.133269
  H      18.295110    -74.752203    -11.869405
  H      14.235110    -76.835482    -13.733224
  H      17.209879    -79.916108    -11.124815
  H      17.878511    -80.286913    -12.745156
  H      14.704807    -79.912837    -11.197402
  H      14.798651    -79.596550    -13.880011
  H      16.368240    -81.725350    -14.826864
  H      13.913414    -81.866585    -15.063332
  H      14.154902    -82.561314    -12.357320
  H      11.751376    -81.552280    -14.233225
  H      12.511802    -79.941659    -14.284551
  H      11.276163    -82.150555     -8.222980
  H      12.269509    -75.899287    -10.732134
  H      10.009359    -85.710291    -11.307575
  H      11.713932    -86.081002    -11.098006
  H      11.140743    -85.441468    -12.640761
  H      11.570703    -85.585110     -8.745935
  H       9.858492    -85.238075     -8.947476
  H      10.785549    -84.396630     -7.700545
  H      16.240194    -81.891346    -12.445753
  H      11.673279    -83.263214    -13.005837
  N      14.496527    -74.310144    -11.093258
  C      13.395487    -73.452592    -11.472815
  H      15.033157    -74.722575    -11.841474
  H      12.775137    -73.952241    -12.218016
  H      12.813441    -73.227150    -10.579933
  H      13.776773    -72.521106    -11.895065
>
75
Coordinates from ORCA-job /home/esp/scriptDevelopment/drFrankenstein/outputs/torsion_2-10-9-8/conformer_2_forwards/orca_scan Relaxed Surface Scan Step 8 E -133.324887540670
  C      15.758372    -78.116480     -9.065623
  O      16.837826    -78.421104     -9.548405
  C      14.898902    -79.119460     -8.334709
  H      13.854794    -78.827177     -8.310192
  H      15.001167    -80.094186     -8.804810
  H      15.270392    -79.193502     -7.313226
  N      15.258058    -76.865221     -9.088627
  C      15.965263    -75.670651     -9.523241
  C      14.925034    -74.538356     -9.662566
  O      14.698174    -73.793656     -8.731485
  C      16.858117    -75.886269    -10.760335
  C      17.618261    -74.610062    -11.104117
  O      16.115337    -76.252186    -11.922346
  O      16.858679    -78.591327    -12.607591
  O      14.584030    -78.282521    -11.413831
  O      15.099296    -77.385318    -13.782847
  C      17.023582    -79.928688    -12.158493
  C      15.188761    -80.680892    -13.797924
  O      14.908290    -80.911388    -11.387164
  C      13.961649    -81.622919    -13.997975
  O      16.116728    -80.885634    -14.832764
  C      12.573841    -80.939207    -13.819750
  O      14.084195    -82.813417    -13.268725
  N      12.183763    -80.664876    -12.450406
  C      11.835266    -81.673638    -11.583830
  C      12.155883    -79.372103    -12.027965
  P      15.591611    -77.696221    -12.326527
  C      11.659350    -81.354945    -10.209675
  C      11.978242    -79.147949    -10.611823
  C      11.616034    -82.996230    -11.980718
  N      12.343395    -78.411832    -12.899799
  C      11.335597    -82.369306     -9.294728
  C      11.278675    -83.978139    -11.072185
  C      12.434532    -77.141637    -12.472659
  C      12.090141    -77.754143    -10.131193
  C      11.149181    -83.667227     -9.698384
  C      11.050333    -85.375941    -11.546048
  C      10.801973    -84.732968     -8.709068
  C      15.862584    -80.902311    -12.423498
  N      11.786446    -80.096190     -9.751888
  N      12.115971    -76.841401    -11.148161
  O      12.809069    -76.226130    -13.195453
  O      12.160802    -77.422259     -8.968970
  H      14.350239    -76.716931     -8.669228
  H      16.641552    -75.354776     -8.711588
  H      17.561181    -76.691710    -10.533081
  H      18.272924    -74.335679    -10.282183
  H      16.929379    -73.791520    -11.296369
  H      18.215967    -74.778837    -11.995288
  H      14.252745    -76.893639    -13.820955
  H      17.213698    -79.917886    -11.079820
  H      17.914723    -80.271035    -12.690105
  H      14.695827    -79.970570    -11.206561
  H      14.869597    -79.642871    -13.895781
  H      16.438356    -81.795110    -14.786387
  H      13.989383    -81.923924    -15.054333
  H      14.198328    -82.575196    -12.335581
  H      11.818043    -81.583050    -14.275514
  H      12.589427    -79.978519    -14.336138
  H      11.226961    -82.078854     -8.261971
  H      12.268225    -75.875167    -10.873593
  H      10.039946    -85.702028    -11.302482
  H      11.742438    -86.058757    -11.055616
  H      11.193800    -85.450977    -12.619917
  H      11.554113    -85.520509     -8.715977
  H       9.843858    -85.188560     -8.955354
  H      10.742290    -84.318551     -7.707040
  H      16.308692    -81.909456    -12.418643
  H      11.721897    -83.276975    -13.015225
  N      14.259913    -74.493569    -10.829808
  C      13.318133    -73.436243    -11.127819
  H      14.566609    -75.070112    -11.600569
  H      12.603699    -73.791257    -11.868414
  H      12.810114    -73.150313    -10.207082
  H      13.828342    -72.555352    -11.526857
>
75
Coordinates from ORCA-job /home/esp/scriptDevelopment/drFrankenstein/outputs/torsion_2-10-9-8/conformer_2_forwards/orca_scan Relaxed Surface Scan Step 9 E -133.327226992510
  C      15.662319    -78.188619     -8.986676
  O      16.746157    -78.596628     -9.369896
  C      14.629004    -79.101763     -8.371613
  H      13.620593    -78.718537     -8.490533