75
Coordinates from ORCA-job /home/esp/scriptDevelopment/drFrankenstein/outputs/torsion_8-7-10-11/conformer_2_backwards/orca_scan Relaxed Surface Scan Step 1 E -133.308118402560
  C      14.744910    -76.094821     -8.644050
  O      15.910277    -76.165559     -8.252939
  C      13.570586    -76.478201     -7.786802
  H      13.901598    -77.111255     -6.968419
  H      13.127674    -75.573686     -7.373503
  H      12.816867    -76.986110     -8.381496
  N      14.427314    -75.627192     -9.856666
  C      15.433166    -75.246673    -10.815769
  C      14.731516    -74.439475    -11.910463
  O      13.560667    -74.603751    -12.194071
  C      16.205340    -76.488511    -11.403298
  C      16.100423    -76.634186    -12.917488
  O      15.766010    -77.676407    -10.771154
  O      16.638050    -80.029381    -10.438671
  O      18.229210    -78.017162    -10.140814
  O      16.319154    -78.715959     -8.490186
  C      17.305447    -80.408737    -11.629937
  C      15.134041    -81.188821    -12.604328
  O      16.522170    -82.635378    -11.186571
  C      14.324331    -82.358290    -13.205802
  O      15.215136    -80.102991    -13.485022
  C      12.891413    -81.921294    -13.591337
  O      14.235210    -83.458098    -12.341529
  N      12.229643    -81.214556    -12.514875
  C      11.714609    -81.846937    -11.411214
  C      12.231832    -79.847975    -12.586367
  P      16.868715    -78.518883     -9.943267
  C      11.299308    -81.049508    -10.309409
  C      11.876088    -79.133510    -11.380626
  C      11.564819    -83.231924    -11.313480
  N      12.571136    -79.279196    -13.706122
  C      10.752103    -81.665591     -9.173561
  C      11.020791    -83.821115    -10.190781
  C      12.698817    -77.932223    -13.787137
  C      12.096317    -77.669668    -11.398730
  C      10.602302    -83.027835     -9.098105
  C      10.873729    -85.306990    -10.134267
  C      10.010499    -83.664042     -7.880541
  C      16.560696    -81.630070    -12.173470
  N      11.450745    -79.709160    -10.303015
  N      12.481562    -77.190622    -12.606946
  O      13.012209    -77.351395    -14.798559
  O      11.962184    -76.951181    -10.424985
  H      13.473070    -75.737538    -10.199194
  H      16.164906    -74.619429    -10.292948
  H      17.265542    -76.364896    -11.146798
  H      16.574041    -75.792656    -13.414577
  H      15.069908    -76.715770    -13.249052
  H      16.613943    -77.545369    -13.215270
  H      16.268601    -77.827928     -8.080264
  H      18.345107    -80.658961    -11.398210
  H      17.288462    -79.596460    -12.359698
  H      16.388626    -82.185058    -10.339356
  H      14.634021    -80.812170    -11.704014
  H      15.444289    -80.408526    -14.370770
  H      14.826196    -82.665923    -14.144612
  H      15.070518    -83.534328    -11.847651
  H      12.322675    -82.807514    -13.871186
  H      12.932923    -81.217415    -14.424617
  H      10.450969    -81.020262     -8.363585
  H      12.677702    -76.185707    -12.650629
  H       9.826715    -85.583138    -10.014344
  H      11.419199    -85.709673     -9.282107
  H      11.256690    -85.768705    -11.039639
  H      10.720293    -84.353074     -7.424762
  H       9.117836    -84.231894     -8.139463
  H       9.741259    -82.908702     -7.147936
  H      17.099150    -82.048224    -13.032693
  H      11.894454    -83.867123    -12.117364
  N      15.511435    -73.527927    -12.512003
  C      15.049454    -72.706915    -13.606860
  H      16.474293    -73.433878    -12.230229
  H      15.623871    -72.913395    -14.510989
  H      14.003650    -72.950637    -13.782695
  H      15.139583    -71.649483    -13.355712
>
75
Coordinates from ORCA-job /home/esp/scriptDevelopment/drFrankenstein/outputs/torsion_8-7-10-11/conformer_2_backwards/orca_scan Relaxed Surface Scan Step 2 E -133.318928204560
  C      13.012497    -76.966406     -8.932143
  O      13.720261    -77.596616     -8.145561
  C      11.530314    -76.789461     -8.744039
  H      11.206322    -77.284378     -7.832907
  H      11.295868    -75.729633     -8.681414
  H      11.013923    -77.203181     -9.606514
  N      13.494311    -76.352187    -10.015249
  C      14.894086    -76.198683    -10.325123
  C      15.056122    -74.797409    -10.930919
  O      14.126456    -74.186073    -11.406863
  C      15.388575    -77.253751    -11.348439
  C      14.996514    -76.945615    -12.786095
  O      14.956623    -78.544890    -10.957007
  O      16.277110    -80.685496    -10.520552
  O      17.045091    -78.451537     -9.482010
  O      14.924144    -79.822777     -8.760017
  C      17.065080    -80.662146    -11.700898
  C      15.047628    -81.349556    -12.971722
  O      16.572535    -82.993137    -11.944868
  C      14.226503    -82.434260    -13.697609
  O      15.056692    -80.157311    -13.717529
  C      12.733704    -82.017049    -13.809837
  O      14.269486    -83.693624    -13.080908
  N      12.320647    -81.016758    -12.845054
  C      12.253020    -81.282038    -11.498451
  C      12.108761    -79.750977    -13.307366
  P      15.888721    -79.271092     -9.854240
  C      11.957299    -80.215254    -10.606955
  C      11.796548    -78.740120    -12.324918
  C      12.483528    -82.548550    -10.957512
  N      12.191389    -79.527006    -14.590472
  C      11.929780    -80.454511     -9.224502
  C      12.470537    -82.761393     -9.593776
  C      11.982570    -78.289762    -15.094232
  C      11.563841    -77.363173    -12.819964
  C      12.196101    -81.696368     -8.706025
  C      12.764810    -84.124855     -9.059381
  C      12.213949    -81.913731     -7.227944
  C      16.501901    -81.757004    -12.617298
  N      11.729608    -78.965797    -11.051897
  N      11.650805    -77.261839    -14.175694
  O      12.064230    -78.017548    -16.266460
  O      11.327193    -76.413675    -12.101118
  H      12.848808    -75.890281    -10.650915
  H      15.465739    -76.330604     -9.400624
  H      16.486272    -77.242606    -11.281797
  H      15.660031    -76.191441    -13.198026
  H      13.977463    -76.574439    -12.837515
  H      15.067529    -77.855178    -13.378329
  H      14.460116    -79.051352     -8.353763
  H      18.105471    -80.878541    -11.440164
  H      17.006760    -79.689666    -12.194148
  H      16.339307    -82.818221    -11.021058
  H      14.573793    -81.104358    -12.015763
  H      15.212040    -80.355494    -14.650044
  H      14.627823    -82.525904    -14.724066
  H      15.168967    -83.841546    -12.739075
  H      12.133349    -82.921000    -13.690664
  H      12.539543    -81.569038    -14.785443
  H      11.719464    -79.616710     -8.581469
  H      11.508131    -76.342872    -14.581695
  H      11.916541    -84.502585     -8.489613
  H      13.620450    -84.088642     -8.386712
  H      12.981100    -84.819996     -9.865852
  H      13.213638    -82.201864     -6.906399
  H      11.526384    -82.708146     -6.941058
  H      11.937282    -81.002642     -6.706283
  H      17.108630    -81.851584    -13.524762
  H      12.719152    -83.375882    -11.606617
  N      16.322352    -74.342039    -10.891968
  C      16.707799    -73.061766    -11.436803
  H      17.037020    -74.905337    -10.458937
  H      17.448275    -73.186966    -12.228529
  H      15.812149    -72.599536    -11.847804
  H      17.121542    -72.420138    -10.657624
>
75
Coordinates from ORCA-job /home/esp/scriptDevelopment/drFrankenstein/outputs/torsion_8-7-10-11/conformer_2_backwards/orca_scan Relaxed Surface Scan Step 3 E -133.324195124910
  C      12.669694    -76.820500     -9.296716
  O      13.172088    -77.730855     -8.641436
  C      11.214858    -76.459814     -9.232798
  H      10.722551    -77.026493     -8.448678
  H      11.093938    -75.395806     -9.046764
  H      10.757635    -76.697901    -10.193262
  N      13.387754    -76.058231    -10.136225
  C      14.799677    -76.222879    -10.332447
  C      15.477354    -74.861315    -10.519130
  O      14.862530    -73.873376    -10.864700
  C      15.139826    -77.132231    -11.536776
  C      14.290591    -76.840288    -12.759550
  O      14.950250    -78.492649    -11.167371
  O      16.446999    -80.472001    -10.649253
  O      17.084184    -78.120437     -9.806446
  O      15.103250    -79.557858     -8.871584
  C      17.136487    -80.456917    -11.892179
  C      15.064776    -81.317251    -12.982179
  O      16.770639    -82.818646    -12.025270
  C      14.307953    -82.482259    -13.653060
  O      14.928589    -80.137067    -13.732890
  C      12.785394    -82.193717    -13.747885
  O      14.458782    -83.710688    -12.990726
  N      12.299967    -81.163024    -12.851225
  C      12.271342    -81.330005    -11.488783
  C      11.925445    -79.974857    -13.404849
  P      15.976620    -79.052851    -10.064791
  C      11.828921    -80.249372    -10.677819
  C      11.448114    -78.954257    -12.501574
  C      12.678148    -82.507142    -10.856856
  N      12.007293    -79.830926    -14.700044
  C      11.842057    -80.382372     -9.280775
  C      12.709779    -82.609876     -9.480830
  C      11.636646    -78.675065    -15.294456
  C      10.994137    -77.677412    -13.103439
  C      12.295131    -81.526214     -8.673489
  C      13.202890    -83.869754     -8.848039
  C      12.363180    -81.617721     -7.183737
  C      16.567310    -81.611993    -12.724736
  N      11.410473    -79.088305    -11.213838
  N      11.116179    -77.653955    -14.459827
  O      11.721809    -78.469462    -16.480095
  O      10.566377    -76.737086    -12.464952
  H      12.960696    -75.284058    -10.626809
  H      15.206635    -76.705086     -9.436875
  H      16.201253    -76.988614    -11.772511
  H      14.521275    -75.847794    -13.136937
  H      13.239091    -76.886043    -12.495911
  H      14.494027    -77.585424    -13.524509
  H      14.356947    -78.934898     -8.691307
  H      18.203701    -80.610808    -11.707000
  H      16.986844    -79.508299    -12.411017
  H      16.589075    -82.632498    -11.092430
  H      14.627242    -81.103692    -12.001287
  H      15.029079    -80.333334    -14.673291
  H      14.697275    -82.581149    -14.683239
  H      15.385179    -83.795747    -12.704192
  H      12.268081    -83.133617    -13.542676
  H      12.530835    -81.842578    -14.748982
  H      11.518900    -79.533789     -8.702083
  H      10.832563    -76.804508    -14.936353
  H      12.431464    -84.307008     -8.215336
  H      14.064183    -83.659038     -8.215550
  H      13.490007    -84.597246     -9.602287
  H      13.396673    -81.747765     -6.866196
  H      11.789050    -82.467402     -6.816764
  H      11.977796    -80.709462     -6.730780
  H      17.107538    -81.700236    -13.674130
  H      13.017063    -83.343990    -11.445674
  N      16.795236    -74.908517    -10.276209
  C      17.657999    -73.760881    -10.419502
  H      17.208838    -75.786308     -9.989309
  H      18.421877    -73.945851    -11.176417
  H      17.039458    -72.919058    -10.726381
  H      18.144504    -73.527475     -9.471570
>
75
Coordinates from ORCA-job /home/esp/scriptDevelopment/drFrankenstein/outputs/torsion_8-7-10-11/conformer_2_backwards/orca_scan Relaxed Surface Scan Step 4 E -133.319962586030
  C      12.835789    -76.987141     -9.737068
  O      13.265265    -78.120456     -9.525701
  C      11.417605    -76.584915     -9.479281
  H      10.979872    -77.235501     -8.729713
  H      11.351267    -75.548087     -9.163871
  H      10.858113    -76.710953    -10.408479
  N      13.613364    -76.020432    -10.251279
  C      15.021450    -76.189230    -10.482506
  C      15.733444    -74.880089    -10.109369
  O      15.150847    -73.813058    -10.138155
  C      15.381233    -76.560840    -11.949431
  C      14.153323    -76.640804    -12.849502
  O      16.091798    -77.784515    -12.063698
  O      17.453144    -79.784812    -11.600390
  O      17.313675    -78.038218     -9.789373
  O      15.301392    -79.550570    -10.373136
  C      17.350289    -80.124964    -12.974744
  C      15.065156    -81.252470    -12.986347
  O      17.085983    -82.416232    -12.253942
  C      14.329618    -82.546483    -13.392729
  O      14.623417    -80.129998    -13.700751
  C      12.788740    -82.396996    -13.406285
  O      14.656374    -83.612677    -12.537048
  N      12.255598    -81.324331    -12.590394
  C      12.146679    -81.426188    -11.227219
  C      11.827061    -80.201583    -13.233090
  P      16.556546    -78.716392    -10.848541
  C      11.492292    -80.381471    -10.518858
  C      11.242369    -79.163637    -12.417916
  C      12.638114    -82.514451    -10.504630
  N      11.939631    -80.140367    -14.534126
  C      11.322594    -80.492448     -9.129917
  C      12.488680    -82.590490     -9.134950
  C      11.557999    -79.034830    -15.210493
  C      10.838228    -77.913886    -13.105189
  C      11.808502    -81.568659     -8.431959
  C      13.052827    -83.760090     -8.397162
  C      11.635658    -81.656979     -6.949197
  C      16.597698    -81.448812    -13.154914
  N      11.054706    -79.271710    -11.140040
  N      11.017398    -77.965797    -14.454999
  O      11.667366    -78.907045    -16.405904
  O      10.411459    -76.928559    -12.538848
  H      13.274547    -75.072079    -10.353048
  H      15.371445    -76.983849     -9.822391
  H      16.057316    -75.789362    -12.346785
  H      13.649168    -75.680057    -12.887303
  H      13.467476    -77.397535    -12.477075
  H      14.464565    -76.928024    -13.850238
  H      14.547164    -79.024010     -9.994856
  H      18.379451    -80.240746    -13.326805
  H      16.847762    -79.333803    -13.529708
  H      17.265276    -81.957994    -11.419407
  H      14.866931    -81.042709    -11.929539
  H      14.473895    -80.357780    -14.627509
  H      14.638636    -82.804096    -14.422597
  H      15.611132    -83.573881    -12.354290
  H      12.369836    -83.349001    -13.073603
  H      12.452107    -82.178676    -14.421242
  H      10.812210    -79.685730     -8.630947
  H      10.761750    -77.141302    -14.987599
  H      12.265288    -84.294277     -7.866933
  H      13.777513    -83.424938     -7.656513
  H      13.544084    -84.447581     -9.079817
  H      12.605567    -81.679801     -6.454585
  H      11.101878    -82.566387     -6.676159
  H      11.079030    -80.801498     -6.578021
  H      16.803679    -81.827792    -14.164842
  H      13.175289    -83.298720    -11.012909
  N      17.020043    -75.062873     -9.797334
  C      17.897423    -73.975787     -9.436023
  H      17.383192    -76.010365     -9.748062
  H      18.753326    -73.938275    -10.111385
  H      17.331632    -73.048522     -9.512864
  H      18.256820    -74.098385     -8.413470
>
75
Coordinates from ORCA-job /home/esp/scriptDevelopment/drFrankenstein/outputs/torsion_8-7-10-11/conformer_2_backwards/orca_scan Relaxed Surface Scan Step 5 E -133.318963689970
  C      12.665191    -76.713872     -9.753249
  O      13.062570    -77.847878     -9.488528
  C      11.238098    -76.292697     -9.613970
  H      10.756948    -76.864070     -8.826545
  H      11.148654    -75.228936     -9.417613
  H      10.736006    -76.527428    -10.555634
  N      13.505784    -75.777086    -10.236938
  C      14.884921    -76.107819    -10.436445
  C      15.846738    -74.992366     -9.994800
  O      15.518926    -73.821867    -10.086845
  C      15.210814    -76.562291    -11.880916
  C      14.052454    -77.284955    -12.560031
  O      16.331073    -77.447783    -11.829764
  O      17.311658    -79.706156    -11.560192
  O      17.102117    -78.288171     -9.505998
  O      15.029356    -79.350316    -10.589031
  C      17.261907    -79.941411    -12.960997
  C      15.060966    -81.184821    -13.116710
  O      17.131998    -82.280064    -12.380842
  C      14.374065    -82.522597    -13.452984
  O      14.599870    -80.132679    -13.926694
  C      12.827731    -82.422041    -13.434930
  O      14.750288    -83.542578    -12.563763
  N      12.280375    -81.334763    -12.646698
  C      12.219373    -81.379737    -11.276507
  C      11.794255    -80.254063    -13.320679
  P      16.442561    -78.648539    -10.763146
  C      11.564937    -80.319693    -10.590353
  C      11.212483    -79.194987    -12.529772
  C      12.763717    -82.421397    -10.524289
  N      11.858452    -80.247239    -14.625979
  C      11.454511    -80.366360     -9.191857
  C      12.670574    -82.435327     -9.147224
  C      11.412704    -79.186563    -15.335270
  C      10.762821    -77.982293    -13.253082
  C      11.996771    -81.395669     -8.464816
  C      13.291357    -83.555997     -8.379645
  C      11.890719    -81.413724     -6.973496
  C      16.604421    -81.299909    -13.243748
  N      11.076801    -79.248970    -11.242213
  N      10.880448    -78.095276    -14.606021
  O      11.460676    -79.115821    -16.539120
  O      10.354590    -76.975049    -12.712434
  H      13.219960    -74.825055    -10.408451
  H      15.080603    -76.967217     -9.785185
  H      15.547445    -75.715913    -12.489593
  H      13.288571    -76.567338    -12.854334
  H      13.601629    -78.019653    -11.905916
  H      14.418136    -77.793851    -13.448073
  H      14.354794    -78.859047    -10.059685
  H      18.301538    -79.958872    -13.299927
  H      16.718106    -79.147001    -13.471314
  H      17.294806    -81.848306    -11.528796
  H      14.829254    -80.911917    -12.081638
  H      14.405390    -80.453467    -14.816797
  H      14.672791    -82.809204    -14.478215
  H      15.710781    -83.480092    -12.420117
  H      12.448671    -83.373005    -13.055082
  H      12.457978    -82.254612    -14.448015
  H      10.950361    -79.544035     -8.713045
  H      10.585657    -77.301796    -15.165105
  H      12.538882    -84.079275     -7.790910
  H      14.038806    -83.170464     -7.687701
  H      13.768559    -84.266088     -9.049029
  H      12.881597    -81.393697     -6.522288
  H      11.388275    -82.318068     -6.632564
  H      11.333708    -80.550790     -6.620994
  H      16.856638    -81.607711    -14.266850
  H      13.298123    -83.217659    -11.016326
  N      17.025277    -75.425933     -9.546372
  C      18.066993    -74.516132     -9.133946
  H      17.214036    -76.420929     -9.466377
  H      18.963029    -74.670323     -9.736561
  H      17.703389    -73.498950     -9.272588
  H      18.313541    -74.675341     -8.083440
>
75
Coordinates from ORCA-job /home/esp/scriptDevelopment/drFrankenstein/outputs/torsion_8-7-10-11/conformer_2_backwards/orca_scan Relaxed Surface Scan Step 6 E -133.311173487570
  C      13.762311    -73.741676     -9.730465
  O      14.525716    -73.784052     -8.788166
  C      13.046234    -72.490849    -10.184648
  H      13.231346    -71.691962     -9.472905
  H      13.420012    -72.190425    -11.161337
  H      11.977163    -72.672771    -10.260209
  N      13.457489    -74.841620    -10.462932
  C      14.121689    -76.102584    -10.210326
  C      15.509570    -76.081689    -10.865174
  O      15.662609    -76.281909    -12.058935
  C      13.274449    -77.264504    -10.737861
  C      12.145345    -77.571414     -9.769576
  O      14.056494    -78.432823    -10.984454
  O      16.574086    -78.917155    -10.800184
  O      15.319564    -78.272680     -8.694628
  O      14.912043    -80.496968     -9.874562
  C      16.788195    -78.953964    -12.203813
  C      15.235418    -80.766994    -13.020589
  O      17.340467    -81.290428    -11.874339
  C      15.100547    -82.190395    -13.610536
  O      14.622875    -79.812785    -13.846121
  C      13.619767    -82.553153    -13.895991
  O      15.635884    -83.176071    -12.767285
  N      12.687445    -81.808308    -13.074978
  C      12.565538    -82.023894    -11.726818
  C      12.041033    -80.761789    -13.667920
  P      15.205646    -78.912490    -10.001059
  C      11.777737    -81.122341    -10.964530
  C      11.356364    -79.838493    -12.791200
  C      13.186118    -83.084856    -11.061991
  N      12.079763    -80.651400    -14.965299
  C      11.631314    -81.326177     -9.583702
  C      13.041584    -83.265550     -9.702381
  C      11.507432    -79.594546    -15.587781
  C      10.855087    -78.582289    -13.404618
  C      12.248311    -82.373520     -8.944112
  C      13.731925    -84.408304     -9.031961
  C      12.090303    -82.564175     -7.468190
  C      16.712766    -80.386374    -12.753393
  N      11.224440    -80.023284    -11.518174
  N      10.943908    -78.589504    -14.765726
  O      11.476528    -79.454877    -16.785331
  O      10.427662    -77.636344    -12.779782
  H      12.946804    -74.750374    -11.327284
  H      14.241534    -76.195286     -9.126695
  H      12.874032    -77.008871    -11.725991
  H      11.593398    -76.658995     -9.561583
  H      12.564346    -77.959369     -8.843427
  H      11.470584    -78.299922    -10.211255
  H      14.367082    -80.667245     -9.106308
  H      17.797185    -78.555446    -12.334879
  H      16.067821    -78.313428    -12.717063
  H      17.092784    -81.028720    -10.974939
  H      14.709422    -80.717219    -12.063996
  H      14.983425    -79.869535    -14.739952
  H      15.637573    -82.207925    -14.576844
  H      16.460015    -82.830387    -12.381628
  H      13.499493    -83.624986    -13.733909
  H      13.359846    -82.303576    -14.925616
  H      11.019269    -80.622238     -9.041869
  H      10.606825    -77.767364    -15.255149
  H      13.006701    -85.064890     -8.552789
  H      14.407028    -84.045124     -8.258367
  H      14.306832    -84.985755     -9.749801
  H      13.057657    -82.539239     -6.967742
  H      11.635154    -83.530296     -7.254389
  H      11.460977    -81.785484     -7.046736
  H      17.272783    -80.430850    -13.696624
  H      13.818795    -83.764102    -11.607785
  N      16.494412    -75.750990    -10.026328
  C      17.872140    -75.647866    -10.434873
  H      16.273026    -75.571388     -9.058403
  H      18.464949    -76.442534     -9.977801
  H      17.907195    -75.746921    -11.518832
  H      18.278736    -74.679289    -10.142165
>
75
Coordinates from ORCA-job /home/esp/scriptDevelopment/drFrankenstein/outputs/torsion_8-7-10-11/conformer_2_backwards/orca_scan Relaxed Surface Scan Step 7 E -133.307994068500
  C      13.776144    -73.539812    -10.468339
  O      14.092881    -73.320395     -9.315654
  C      13.376316    -72.467208    -11.453262
  H      13.340554    -71.508129    -10.945361
  H      14.105207    -72.417135    -12.259481
  H      12.400253    -72.691444    -11.876356
  N      13.734537    -74.794614    -10.974931
  C      14.121818    -75.934196    -10.164682
  C      15.653607    -76.038620    -10.209107
  O      16.246308    -76.602366    -11.116025
  C      13.364606    -77.207606    -10.598127
  C      12.487841    -77.720395     -9.464362
  O      14.210936    -78.242927    -11.088008
  O      16.576953    -79.241165    -11.010407
  O      15.571221    -78.269200     -8.836866
  O      14.736070    -80.399025     -9.916531
  C      16.735874    -79.041395    -12.404381
  C      15.106528    -80.776275    -13.192385
  O      17.366465    -81.367649    -12.432691
  C      14.890235    -82.170924    -13.824465
  O      14.399920    -79.780346    -13.886506
  C      13.385159    -82.511346    -13.975521
  O      15.493999    -83.192263    -13.075468
  N      12.545532    -81.793673    -13.038673
  C      12.523789    -82.084636    -11.700117
  C      11.868565    -80.711367    -13.520783
  P      15.305114    -78.891699    -10.132943
  C      11.802896    -81.222962    -10.832354
  C      11.289851    -79.818488    -12.543129
  C      13.180962    -83.185008    -11.144282
  N      11.789726    -80.541639    -14.811436
  C      11.731259    -81.521386     -9.462577
  C      13.114006    -83.455093     -9.793793
  C      11.189811    -79.446126    -15.328614
  C      10.787616    -78.516964    -13.049237
  C      12.367010    -82.617035     -8.933940
  C      13.838623    -84.638733     -9.240923
  C      12.286235    -82.911466     -7.469154
  C      16.605660    -80.396174    -13.114134
  N      11.250020    -80.075123    -11.275292
  N      10.736874    -78.466693    -14.411914
  O      11.050863    -79.246488    -16.510517
  O      10.473001    -77.578360    -12.349888
  H      13.594622    -74.943714    -11.961335
  H      13.834362    -75.685066     -9.137177
  H      12.726230    -76.969730    -11.457688
  H      11.794558    -76.939492     -9.163290
  H      13.109538    -78.006393     -8.619888
  H      11.912307    -78.571845     -9.819003
  H      14.396999    -80.483719     -9.026996
  H      17.739175    -78.630487    -12.539304
  H      15.995180    -78.335639    -12.776885
  H      17.312540    -81.142118    -11.491006
  H      14.715184    -80.772577    -12.169951
  H      14.620781    -79.821158    -14.825730
  H      15.329305    -82.154660    -14.839201
  H      16.375513    -82.880198    -12.803831
  H      13.270271    -83.587725    -13.842683
  H      13.028048    -82.220807    -14.964532
  H      11.162885    -80.849315     -8.838366
  H      10.378960    -77.614326    -14.829458
  H      13.140961    -85.325994     -8.763762
  H      14.558218    -84.324567     -8.486293
  H      14.369480    -85.167699    -10.026939
  H      13.279159    -82.915187     -7.021257
  H      11.845412    -83.892935     -7.299873
  H      11.678499    -82.167673     -6.961685
  H      17.017293    -80.323344    -14.128986
  H      13.780742    -83.824571    -11.769778
  N      16.257794    -75.352991     -9.239098
  C      17.690312    -75.316419     -9.088476
  H      15.698132    -74.832939     -8.578375
  H      17.979136    -75.758988     -8.134461
  H      18.123175    -75.899015     -9.899390
  H      18.052385    -74.288165     -9.137685
>
75
Coordinates from ORCA-job /home/esp/scriptDevelopment/drFrankenstein/outputs/torsion_8-7-10-11/conformer_2_backwards/orca_scan Relaxed Surface Scan Step 8 E -133.317393096930
  C      14.232850    -74.849381    -12.684683
  O      14.261169    -73.769968    -12.114397
  C      14.289610    -75.030984    -14.173522
  H      14.436316    -74.069630    -14.656103
  H      15.096744    -75.709616    -14.438435
  H      13.351973    -75.471098    -14.511303
  N      14.124974    -76.008323    -11.996683
  C      13.967808    -76.035676    -10.549981
  C      15.362774    -75.922262     -9.930598
  O      15.965459    -76.882285     -9.473189
  C      13.251567    -77.333347    -10.159494
  C      12.629735    -77.265479     -8.774508
  O      14.059961    -78.466635    -10.389611
  O      16.513151    -79.290836    -10.124696
  O      15.096760    -78.882345     -7.940697
  O      14.620306    -80.690475     -9.604811
  C      16.911129    -78.750716    -11.366128
  C      15.210905    -79.913968    -12.789706
  O      17.265438    -81.027905    -12.015934
  C      14.867445    -81.049265    -13.777030
  O      14.847437    -78.666695    -13.338089
  C      13.332592    -81.260096    -13.876599
  O      15.442956    -82.287241    -13.454340
  N      12.578744    -81.006621    -12.659818
  C      12.528692    -81.897369    -11.616372
  C      11.901388    -79.829845    -12.573785
  P      15.110182    -79.140445     -9.374123
  C      11.692766    -81.591029    -10.506256
  C      11.005375    -79.652261    -11.460409
  C      13.265394    -83.081290    -11.585262
  N      12.103749    -78.923852    -13.502686
  C      11.650747    -82.469032     -9.410416
  C      13.219380    -83.926345    -10.495808
  C      11.405198    -77.761232    -13.502255
  C      10.145767    -78.440698    -11.463840
  C      12.398411    -83.618873     -9.384359
  C      14.050631    -85.166308    -10.491381
  C      12.351131    -84.532462     -8.201818
  C      16.716367    -79.810374    -12.461831
  N      10.921825    -80.490642    -10.475679
  N      10.401670    -77.613065    -12.531249
  O      11.613043    -76.868319    -14.290421
  O       9.309089    -78.182085    -10.634051
  H      14.271243    -76.893729    -12.468230
  H      13.361215    -75.170318    -10.263178
  H      12.434408    -77.454395    -10.888379
  H      11.947419    -76.421867     -8.722416
  H      13.405695    -77.167198     -8.020802
  H      12.072989    -78.180084     -8.582921
  H      14.285705    -81.009981     -8.769243
  H      17.973126    -78.510293    -11.262903
  H      16.353619    -77.850324    -11.616317
  H      17.052587    -81.088413    -11.070517
  H      14.690190    -80.100682    -11.842217
  H      13.910197    -78.706646    -13.627244
  H      15.218925    -80.737039    -14.775713
  H      16.297550    -82.121981    -13.013963
  H      13.171996    -82.296124    -14.181422
  H      12.920387    -80.589169    -14.631821
  H      11.007078    -82.195462     -8.589249
  H       9.858669    -76.758018    -12.587490
  H      13.419613    -86.048900    -10.393224
  H      14.736923    -85.158961     -9.645881
  H      14.628184    -85.247604    -11.407499
  H      13.340006    -84.633431     -7.756699
  H      12.019473    -85.526627     -8.498030
  H      11.668793    -84.149006     -7.448843
  H      17.258496    -79.516282    -13.366563
  H      13.929381    -83.321336    -12.399322
  N      15.855516    -74.683166     -9.976577
  C      17.185781    -74.357371     -9.522167
  H      15.330241    -73.981036    -10.496080
  H      17.144762    -73.513214     -8.833976
  H      17.589330    -75.228706     -9.008947
  H      17.829896    -74.099262    -10.364810
>
75
Coordinates from ORCA-job /home/esp/scriptDevelopment/drFrankenstein/outputs/torsion_8-7-10-11/conformer_2_backwards/orca_scan Relaxed Surface Scan Step 9 E -133.313237335150
  C      14.593308    -74.975410    -13.332133
  O      15.089907    -73.859084    -13.364022
  C      14.276784    -75.789651    -14.555585