47
Coordinates from ORCA-job /home/esp/scriptDevelopment/drFrankenstein/11_PCY_CHARMM/04_torsion_scanning/torsion_NH1-CT1-CG321-CG2R61/scans_PCY_conformer_41/PCY_conformer_41_backwards/orca_scan Relaxed Surface Scan Step 1 E -79.900938255350
  H      -2.136654     -3.870072      0.581657
  H      -2.208854     -4.016685      2.920189
  H      -2.142706     -1.011853     -1.903578
  H      -2.500895      4.024034     -0.432697
  H      -1.087499     -2.700266     -0.266243
  H      -1.563024      1.344469     -2.282504
  H      -3.219933     -0.113391      2.123603
  H      -0.985531      3.680342      0.413736
  H      -0.026415     -1.341934      5.436494
  H      -2.614248      2.252213      1.755604
  H       0.694019     -0.078005      3.429892
  H      -0.694119      4.448506     -3.499575
  H      -1.457804     -3.343350      5.159723
  N      -1.373009      4.398676     -2.730619
  C      -0.858656      3.679277     -1.701498
  C       0.472100      3.165913     -2.002494
  C      -1.601406      3.403518     -0.447014
  O       1.000780      3.448636     -3.099356
  C      -2.019044      1.958659     -0.278844
  C      -1.922588      1.035429     -1.312213
  C      -2.251008     -0.291128     -1.107283
  C      -2.692427     -0.709535      0.141508
  C      -2.853814      0.218940      1.164331
  C      -2.516141      1.540795      0.950832
  O      -2.959294     -2.047839      0.383371
  C      -1.779398     -2.840189      0.569811
  C      -1.149078     -2.484847      1.893146
  C      -1.551403     -3.169273      3.033555
  C      -1.139441     -2.780476      4.297118
  C      -0.336461     -1.660115      4.454768
  C       0.066330     -0.951200      3.342804
  C      -0.318504     -1.368083      2.067331
  N       0.189362     -0.606015      0.981303
  O       0.340193      0.602680      1.150520
  O       0.497489     -1.165635     -0.068666
  C       2.348907      1.767740     -1.307334
  N       1.087849      2.422975     -1.065615
  H       0.583319      2.109884     -0.246171
  H       2.729625      2.100842     -2.270942
  H       3.056472      2.026120     -0.520035
  H       2.212968      0.684089     -1.322532
  C      -2.572367      5.046383     -2.885506
  O      -3.442810      5.068681     -2.024734
  C      -2.697139      5.723097     -4.219766
  H      -1.912027      6.466294     -4.334528
  H      -2.600133      4.992414     -5.018851
  H      -3.666574      6.207253     -4.286667
>
47
Coordinates from ORCA-job /home/esp/scriptDevelopment/drFrankenstein/11_PCY_CHARMM/04_torsion_scanning/torsion_NH1-CT1-CG321-CG2R61/scans_PCY_conformer_41/PCY_conformer_41_backwards/orca_scan Relaxed Surface Scan Step 2 E -79.900409043670
  H      -2.251011     -3.840391      0.558474
  H      -2.323474     -3.953505      2.900860
  H      -2.159758     -0.957108     -1.914070
  H      -2.324970      4.073808     -0.275026
  H      -1.181393     -2.701542     -0.305854
  H      -1.487759      1.380744     -2.243373
  H      -3.279594     -0.084322      2.106956
  H      -0.790360      3.601435      0.474219
  H      -0.055765     -1.312031      5.376540
  H      -2.594158      2.266898      1.785001
  H       0.692466     -0.093755      3.352265
  H      -0.725009      4.386908     -3.481501
  H      -1.544475     -3.275304      5.129340
  N      -1.372008      4.323638     -2.687140
  C      -0.775459      3.690880     -1.645082
  C       0.564610      3.224975     -1.976929
  C      -1.464538      3.405551     -0.363281
  O       1.060151      3.525853     -3.084051
  C      -1.966175      1.981552     -0.240352
  C      -1.881492      1.072293     -1.286340
  C      -2.260787     -0.244913     -1.109096
  C      -2.735155     -0.667617      0.125758
  C      -2.887032      0.250771      1.159229
  C      -2.504326      1.564042      0.971849
  O      -3.034758     -2.002660      0.347938
  C      -1.871153     -2.818856      0.535443
  C      -1.224449     -2.465343      1.851371
  C      -1.641593     -3.123967      3.001581
  C      -1.213742     -2.731986      4.258885
  C      -0.378642     -1.633171      4.399939
  C       0.039746     -0.949585      3.277894
  C      -0.361921     -1.370329      2.008893
  N       0.164843     -0.636215      0.912203
  O       0.353551      0.568966      1.066688
  O       0.449670     -1.216832     -0.132698
  C       2.498329      1.884219     -1.329753
  N       1.222939      2.497990     -1.054380
  H       0.730697      2.138131     -0.246790
  H       2.860764      2.260846     -2.284524
  H       3.205798      2.134694     -0.540113
  H       2.392531      0.798474     -1.382989
  C      -2.610115      4.901103     -2.814588
  O      -3.443480      4.911983     -1.918187
  C      -2.826809      5.513239     -4.168379
  H      -2.085966      6.288058     -4.349457
  H      -2.728250      4.754187     -4.940387
  H      -3.821507      5.946163     -4.210956
>
47
Coordinates from ORCA-job /home/esp/scriptDevelopment/drFrankenstein/11_PCY_CHARMM/04_torsion_scanning/torsion_NH1-CT1-CG321-CG2R61/scans_PCY_conformer_41/PCY_conformer_41_backwards/orca_scan Relaxed Surface Scan Step 3 E -79.899475407640
  H      -2.372989     -3.812698      0.543511
  H      -2.452490     -3.869867      2.890122
  H      -2.170473     -0.915236     -1.926393
  H      -2.142224      4.098254     -0.122099
  H      -1.283312     -2.712136     -0.344503
  H      -1.401982      1.397129     -2.205987
  H      -3.357754     -0.053373      2.077411
  H      -0.603945      3.498592      0.523299
  H      -0.092343     -1.256205      5.308195
  H      -2.591012      2.278944      1.800171
  H       0.692548     -0.106125      3.258537
  H      -0.749871      4.333049     -3.448834
  H      -1.646946     -3.173096      5.103313
  N      -1.363771      4.244209     -2.631825
  C      -0.690322      3.694200     -1.589010
  C       0.660825      3.290153     -1.953266
  C      -1.327696      3.387567     -0.286593
  O       1.120360      3.619664     -3.067204
  C      -1.915898      1.993153     -0.209629
  C      -1.837226      1.094996     -1.265138
  C      -2.269276     -0.209504     -1.115367
  C      -2.783856     -0.631115      0.103325
  C      -2.932916      0.280462      1.143299
  C      -2.503937      1.582475      0.981336
  O      -3.116583     -1.961162      0.309290
  C      -1.970144     -2.800631      0.502649
  C      -1.306555     -2.441365      1.808851
  C      -1.742751     -3.061992      2.973019
  C      -1.299702     -2.659071      4.221575
  C      -0.427883     -1.586347      4.338899
  C       0.011013     -0.940599      3.202415
  C      -0.407375     -1.372575      1.942547
  N       0.142452     -0.678549      0.830952
  O       0.382249      0.520100      0.963454
  O       0.395884     -1.287623     -0.205856
  C       2.664167      2.030547     -1.358498
  N       1.367695      2.582119     -1.049715
  H       0.894501      2.169193     -0.256511
  H       3.003100      2.460165     -2.299527
  H       3.366922      2.278199     -0.564025
  H       2.603563      0.944547     -1.456136
  C      -2.642769      4.733106     -2.724612
  O      -3.439361      4.710116     -1.796303
  C      -2.952316      5.291865     -4.083485
  H      -2.271410      6.107303     -4.314519
  H      -2.834961      4.518985     -4.838965
  H      -3.974217      5.658147     -4.096137
>
47
Coordinates from ORCA-job /home/esp/scriptDevelopment/drFrankenstein/11_PCY_CHARMM/04_torsion_scanning/torsion_NH1-CT1-CG321-CG2R61/scans_PCY_conformer_41/PCY_conformer_41_backwards/orca_scan Relaxed Surface Scan Step 4 E -79.898209699050
  H      -2.532624     -3.773807      0.534897
  H      -2.599365     -3.764648      2.886325
  H      -2.214668     -0.869539     -1.933798
  H      -1.959686      4.109605      0.020481
  H      -1.425338     -2.721890     -0.389129
  H      -1.340907      1.408138     -2.170282
  H      -3.437040     -0.004094      2.058422
  H      -0.435361      3.389408      0.564583
  H      -0.094115     -1.207531      5.217275
  H      -2.578531      2.300543      1.819285
  H       0.721278     -0.145234      3.132523
  H      -0.758727      4.288449     -3.404869
  H      -1.737576     -3.054797      5.074050
  N      -1.342053      4.160751     -2.572022
  C      -0.603395      3.695152     -1.531322
  C       0.763639      3.375010     -1.916929
  C      -1.196908      3.361669     -0.215927
  O       1.194400      3.751196     -3.026939
  C      -1.872455      2.006148     -0.178525
  C      -1.811452      1.117681     -1.242937
  C      -2.301265     -0.168917     -1.116833
  C      -2.850199     -0.583274      0.089082
  C      -2.984260      0.323323      1.135303
  C      -2.502971      1.609259      0.994958
  O      -3.223552     -1.904766      0.282167
  C      -2.099530     -2.775514      0.470878
  C      -1.401947     -2.416217      1.759516
  C      -1.852223     -2.988805      2.942768
  C      -1.377039     -2.577992      4.176885
  C      -0.455352     -1.544567      4.259640
  C       0.000344     -0.947308      3.103425
  C      -0.452410     -1.387477      1.858347
  N       0.117365     -0.745267      0.725581
  O       0.424487      0.440735      0.829784
  O       0.319479     -1.387444     -0.302769
  C       2.842134      2.222328     -1.362977
  N       1.515951      2.685176     -1.033745
  H       1.062273      2.206588     -0.266884
  H       3.159398      2.719378     -2.278093
  H       3.526681      2.467315     -0.552116
  H       2.844570      1.141670     -1.518687
  C      -2.661738      4.533646     -2.635504
  O      -3.423422      4.462961     -1.681464
  C      -3.061486      5.025499     -3.996834
  H      -2.466424      5.893339     -4.269943
  H      -2.896154      4.246041     -4.736448
  H      -4.112816      5.296046     -3.985169
>
47
Coordinates from ORCA-job /home/esp/scriptDevelopment/drFrankenstein/11_PCY_CHARMM/04_torsion_scanning/torsion_NH1-CT1-CG321-CG2R61/scans_PCY_conformer_41/PCY_conformer_41_backwards/orca_scan Relaxed Surface Scan Step 5 E -79.896487576090
  H      -2.672665     -3.736887      0.527555
  H      -2.742234     -3.661068      2.880735
  H      -2.232717     -0.843805     -1.935602
  H      -1.777887      4.097526      0.157609
  H      -1.550592     -2.726609     -0.423985
  H      -1.262990      1.395986     -2.134341
  H      -3.535521      0.052559      2.024041
  H      -0.280490      3.260539      0.587793
  H      -0.110505     -1.172227      5.145034
  H      -2.592873      2.327290      1.816958
  H       0.740472     -0.193168      3.034388
  H      -0.775264      4.238710     -3.362640
  H      -1.837375     -2.945346      5.049036
  N      -1.323095      4.079126     -2.512393
  C      -0.526367      3.693795     -1.480836
  C       0.849307      3.459043     -1.896082
  C      -1.074003      3.319934     -0.157114
  O       1.237529      3.874847     -3.007112
  C      -1.834027      2.010427     -0.157846
  C      -1.776070      1.124027     -1.224189
  C      -2.318365     -0.143068     -1.118505
  C      -2.911283     -0.542217      0.071536
  C      -3.046506      0.366910      1.115058
  C      -2.517011      1.635676      0.992954
  O      -3.319539     -1.854663      0.257253
  C      -2.215254     -2.750868      0.444519
  C      -1.492096     -2.392389      1.719728
  C      -1.960467     -2.918843      2.917322
  C      -1.460667     -2.504213      4.140356
  C      -0.492496     -1.512460      4.196661
  C      -0.016850     -0.961497      3.025693
  C      -0.496203     -1.405623      1.791880
  N       0.097487     -0.813069      0.644236
  O       0.472183      0.355036      0.725858
  O       0.251252     -1.481303     -0.376146
  C       3.003354      2.423286     -1.396880
  N       1.656860      2.798129     -1.038149
  H       1.240568      2.271733     -0.282261
  H       3.274875      2.958772     -2.305010
  H       3.684521      2.693172     -0.591064
  H       3.069618      1.348651     -1.576812
  C      -2.667578      4.357433     -2.537114
  O      -3.386725      4.260876     -1.553504
  C      -3.148310      4.779111     -3.895893
  H      -2.629785      5.680744     -4.212247
  H      -2.949145      3.993104     -4.620076
  H      -4.216062      4.970852     -3.854371
>
47
Coordinates from ORCA-job /home/esp/scriptDevelopment/drFrankenstein/11_PCY_CHARMM/04_torsion_scanning/torsion_NH1-CT1-CG321-CG2R61/scans_PCY_conformer_41/PCY_conformer_41_backwards/orca_scan Relaxed Surface Scan Step 6 E -79.895318137540
  H      -2.999772     -3.714233      0.447289
  H      -3.524917     -3.632735      2.740902
  H      -1.636571     -1.020783     -1.898193
  H      -1.043559      3.934225      0.316782
  H      -1.545973     -2.922841     -0.221325
  H      -0.451435      1.128518     -2.035122
  H      -3.481473      0.221974      1.740254
  H       0.463608      3.012307      0.257592
  H      -1.126302     -1.473162      5.539779
  H      -2.309830      2.391284      1.595270
  H       0.261014     -0.630873      3.664429
  H      -1.034530      4.243612     -3.371048
  H      -3.005209     -3.012943      5.060453
  N      -1.347340      4.001807     -2.425210
  C      -0.285409      3.684532     -1.634639
  C       0.973977      3.774105     -2.353901
  C      -0.484903      3.184514     -0.251528
  O       0.976721      4.193500     -3.531554
  C      -1.285989      1.901666     -0.217801
  C      -1.121369      0.941023     -1.208376
  C      -1.785331     -0.268178     -1.138318
  C      -2.621184     -0.533016     -0.060501
  C      -2.818209      0.436139      0.916347
  C      -2.157580      1.646014      0.831262
  O      -3.254576     -1.760124      0.065310
  C      -2.380132     -2.817840      0.478488
  C      -1.908071     -2.547542      1.885326
  C      -2.679866     -2.996070      2.950165
  C      -2.395307     -2.634259      4.256136
  C      -1.342319     -1.772927      4.527553
  C      -0.567775     -1.299146      3.489419
  C      -0.833345     -1.695621      2.178352
  N       0.054463     -1.199984      1.181631
  O       0.526708     -0.079384      1.336180
  O       0.345971     -1.914176      0.226302
  C       3.399400      3.439310     -2.359447
  N       2.108798      3.419412     -1.716361
  H       2.056660      2.988384     -0.807475
  H       3.284484      3.928105     -3.325335
  H       4.109550      3.995257     -1.748592
  H       3.771480      2.424898     -2.511425
  C      -2.677983      4.126976     -2.120744
  O      -3.124786      3.962515     -0.994910
  C      -3.515115      4.488894     -3.314773
  H      -3.167033      5.422830     -3.748336
  H      -3.439758      3.707744     -4.067132
  H      -4.550869      4.594262     -3.007146
>
47
Coordinates from ORCA-job /home/esp/scriptDevelopment/drFrankenstein/11_PCY_CHARMM/04_torsion_scanning/torsion_NH1-CT1-CG321-CG2R61/scans_PCY_conformer_41/PCY_conformer_41_backwards/orca_scan Relaxed Surface Scan Step 7 E -79.894457445520
  H      -3.250012     -3.624701      0.465136
  H      -3.715102     -3.544265      2.769962
  H      -1.783936     -1.003238     -1.901656
  H      -0.769844      3.867327      0.368823
  H      -1.761428     -2.923167     -0.227225
  H      -0.469906      1.069300     -2.063510
  H      -3.416536      0.317409      1.810213
  H       0.656577      2.845140      0.142570
  H      -1.125998     -1.572931      5.537985
  H      -2.114663      2.408149      1.641811
  H       0.267507     -0.791310      3.640994
  H      -1.015907      4.114643     -3.381918
  H      -3.106514     -2.988168      5.084098
  N      -1.291139      3.876551     -2.423147
  C      -0.191688      3.648316     -1.652321
  C       1.040028      3.851911     -2.397482
  C      -0.316189      3.106442     -0.274816
  O       0.976568      4.218424     -3.591364
  C      -1.193743      1.877375     -0.214883
  C      -1.122934      0.916119     -1.216465
  C      -1.858492     -0.249642     -1.131904
  C      -2.673131     -0.470628     -0.028080
  C      -2.771024      0.497617      0.964316
  C      -2.037707      1.663829      0.865659
  O      -3.383266     -1.654170      0.106802
  C      -2.572154     -2.771345      0.491430
  C      -2.054315     -2.548131      1.890245
  C      -2.828300     -2.962968      2.967216
  C      -2.492730     -2.636756      4.270405
  C      -1.382867     -1.845184      4.527505
  C      -0.604316     -1.405542      3.477423
  C      -0.923270     -1.767346      2.168281
  N      -0.030104     -1.313415      1.156395
  O       0.512220     -0.225516      1.312675
  O       0.196599     -2.032888      0.187566
  C       3.489040      3.836668     -2.427797
  N       2.217827      3.659622     -1.770608
  H       2.233881      3.335515     -0.817415
  H       3.296482      4.193353     -3.438100
  H       4.090636      4.569587     -1.890601
  H       4.030080      2.890901     -2.474948
  C      -2.614491      3.966909     -2.077267
  O      -3.010366      3.867751     -0.925241
  C      -3.510322      4.207183     -3.259106
  H      -3.237507      5.135789     -3.753980
  H      -3.408288      3.391782     -3.970686
  H      -4.540245      4.265673     -2.920960
>
47
Coordinates from ORCA-job /home/esp/scriptDevelopment/drFrankenstein/11_PCY_CHARMM/04_torsion_scanning/torsion_NH1-CT1-CG321-CG2R61/scans_PCY_conformer_41/PCY_conformer_41_backwards/orca_scan Relaxed Surface Scan Step 8 E -79.893424357780
  H      -3.487054     -3.527862      0.516821
  H      -3.857972     -3.441483      2.839090
  H      -1.958945     -0.983366     -1.887325
  H      -0.521465      3.781011      0.399871
  H      -1.986019     -2.911531     -0.227761
  H      -0.532795      1.008604     -2.097619
  H      -3.349532      0.407374      1.896669
  H       0.800457      2.674088     -0.000845
  H      -1.044593     -1.665582      5.519151
  H      -1.936573      2.418709      1.680056
  H       0.322289     -0.955056      3.575229
  H      -0.975829      4.017807     -3.408546
  H      -3.126964     -2.948132      5.131993
  N      -1.236094      3.770133     -2.447961
  C      -0.123747      3.615725     -1.676825
  C       1.089187      3.937855     -2.412019
  C      -0.184953      3.022061     -0.315060
  O       1.003793      4.285735     -3.609733
  C      -1.131918      1.850146     -0.219367
  C      -1.158214      0.890170     -1.224691
  C      -1.956518     -0.231048     -1.112654
  C      -2.735735     -0.410218      0.023767
  C      -2.732140      0.554904      1.023863
  C      -1.936617      1.676700      0.897728
  O      -3.511608     -1.548823      0.182449
  C      -2.757008     -2.718277      0.523851
  C      -2.172326     -2.543230      1.903001
  C      -2.929116     -2.919400      3.006127
  C      -2.523778     -2.628113      4.297666
  C      -1.356777     -1.910907      4.517391
  C      -0.592630     -1.511000      3.441200
  C      -0.984109     -1.838437      2.142676
  N      -0.103499     -1.431760      1.100122
  O       0.513422     -0.382600      1.244336
  O       0.038620     -2.153574      0.117093
  C       3.527728      4.172875     -2.411211
  N       2.271862      3.875573     -1.767794
  H       2.303721      3.600583     -0.799707
  H       3.315694      4.472126     -3.436153
  H       4.034821      4.986134     -1.892330
  H       4.170350      3.291868     -2.416695
  C      -2.559563      3.826923     -2.093207
  O      -2.939428      3.769072     -0.933580
  C      -3.473094      3.978776     -3.276087
  H      -3.239271      4.893482     -3.814976
  H      -3.345181      3.135977     -3.950614
  H      -4.501869      4.013959     -2.931359
>
47
Coordinates from ORCA-job /home/esp/scriptDevelopment/drFrankenstein/11_PCY_CHARMM/04_torsion_scanning/torsion_NH1-CT1-CG321-CG2R61/scans_PCY_conformer_41/PCY_conformer_41_backwards/orca_scan Relaxed Surface Scan Step 9 E -79.892289018620
  H      -3.702092     -3.430258      0.591664
  H      -3.975447     -3.331720      2.926557
  H      -2.134658     -0.967141     -1.873508
  H      -0.262369      3.656897      0.407170
  H      -2.197647     -2.901114     -0.210872
  H      -0.604679      0.938394     -2.144134
  H      -3.260660      0.478813      1.976936
  H       0.926276      2.486197     -0.183350
  H      -0.959274     -1.735431      5.496750
  H      -1.743469      2.403814      1.701616
  H       0.370230     -1.099510      3.501766
  H      -0.931070      3.970835     -3.433957
  H      -3.127766     -2.890609      5.189823
  N      -1.182812      3.687388     -2.480780
  C      -0.066176      3.582922     -1.707385
  C       1.123341      4.030462     -2.415939
  C      -0.059107      2.917754     -0.375906
  O       1.024314      4.411842     -3.601924
  C      -1.066382      1.804602     -0.238341
  C      -1.194603      0.852125     -1.243287
  C      -2.051256     -0.220817     -1.097475
  C      -2.786426     -0.360556      0.073364
  C      -2.677730      0.595389      1.076169
  C      -1.824114      1.669160      0.916336
  O      -3.621614     -1.451694      0.262706
  C      -2.925312     -2.665605      0.571283
  C      -2.277197     -2.531721      1.926442
  C      -3.011377     -2.866368      3.057887
  C      -2.539493     -2.604219      4.332931
  C      -1.324217     -1.958293      4.507666
  C      -0.580336     -1.600318      3.402939
  C      -1.040650     -1.899618      2.120248
  N      -0.178799     -1.542275      1.044472
  O       0.505972     -0.533103      1.166432
  O      -0.120282     -2.266325      0.054552
  C       3.531366      4.480283     -2.359211
  N       2.297487      4.043597     -1.753348
  H       2.332452      3.757720     -0.788562
  H       3.313410      4.779892     -3.382790
  H       3.942789      5.328637     -1.812343
  H       4.259259      3.668536     -2.366452
  C      -2.508904      3.701392     -2.127645
  O      -2.886479      3.656394     -0.967078
  C      -3.426368      3.790329     -3.313639
  H      -3.232182      4.703164     -3.871087
  H      -3.260879      2.940330     -3.970787
  H      -4.456058      3.787795     -2.969879
>
47
Coordinates from ORCA-job /home/esp/scriptDevelopment/drFrankenstein/11_PCY_CHARMM/04_torsion_scanning/torsion_NH1-CT1-CG321-CG2R61/scans_PCY_conformer_41/PCY_conformer_41_backwards/orca_scan Relaxed Surface Scan Step 10 E -79.891110820230
  H      -3.875882     -3.335661      0.669508
  H      -4.053403     -3.239678      3.013674
  H      -2.274032     -0.954305     -1.847385
  H      -0.030810      3.525209      0.398444
  H      -2.376892     -2.881532     -0.187470
  H      -0.661091      0.872099     -2.176312
  H      -3.185003      0.545860      2.038987
  H       1.015014      2.322995     -0.368536
  H      -0.870623     -1.797226      5.471431
  H      -1.584118      2.391843      1.706329
  H       0.411523     -1.216682      3.428813
  H      -0.891419      3.955250     -3.452167
  H      -3.100494     -2.849252      5.244115
  N      -1.140758      3.626896     -2.512304
  C      -0.028203      3.563633     -1.728370
  C       1.135921      4.120971     -2.401476
  C       0.043329      2.821377     -0.438341
  O       1.022411      4.559370     -3.566088
  C      -1.010892      1.761934     -0.257608
  C      -1.221670      0.815264     -1.254714
  C      -2.125110     -0.212874     -1.076424
  C      -2.823633     -0.315194      0.120669
  C      -2.630386      0.633517      1.117287
  C      -1.730303      1.663222      0.924724
  O      -3.705827     -1.362495      0.341713
  C      -3.062071     -2.611867      0.621603
  C      -2.358255     -2.516094      1.951865
  C      -3.064204     -2.820712      3.109439
  C      -2.532373     -2.586749      4.366241
  C      -1.282587     -1.998717      4.496319
  C      -0.564759     -1.671631      3.365058
  C      -1.086663     -1.944298      2.100215
  N      -0.249353     -1.626079      0.993195
  O       0.484607     -0.649253      1.088613
  O      -0.259753     -2.352526      0.003334
  C       3.511917      4.711276     -2.291149
  N       2.302454      4.164581     -1.726652
  H       2.342751      3.837833     -0.775241
  H       3.288560      5.041410     -3.304092
  H       3.857216      5.560277     -1.701069
  H       4.292913      3.951182     -2.321180
  C      -2.471825      3.597562     -2.175247
  O      -2.862731      3.547634     -1.019669
  C      -3.376053      3.647033     -3.373621
  H      -3.210236      4.564822     -3.932071
  H      -3.168919      2.801906     -4.025166
  H      -4.409274      3.605837     -3.043192
>
47
Coordinates from ORCA-job /home/esp/scriptDevelopment/drFrankenstein/11_PCY_CHARMM/04_torsion_scanning/torsion_NH1-CT1-CG321-CG2R61/scans_PCY_conformer_41/PCY_conformer_41_backwards/orca_scan Relaxed Surface Scan Step 11 E -79.889822367730
  H      -4.013427     -3.260581      0.763705
  H      -4.104806     -3.147068      3.112197
  H      -2.401348     -0.963013     -1.824471
  H       0.184232      3.359597      0.359889
  H      -2.526491     -2.875917     -0.146766
  H      -0.721806      0.789804     -2.220296
  H      -3.107360      0.592282      2.082632
  H       1.070805      2.155912     -0.583603
  H      -0.783013     -1.822304      5.449493
  H      -1.438451      2.363509      1.684468
  H       0.450248     -1.305634      3.359992
  H      -0.861042      3.982682     -3.463695
  H      -3.060358     -2.783604      5.306013
  N      -1.109343      3.591888     -2.547259
  C      -0.004936      3.545196     -1.750022
  C       1.134487      4.205087     -2.372275
  C       0.127911      2.710413     -0.521109
  O       1.006830      4.721372     -3.502891
  C      -0.964131      1.701472     -0.295464
  C      -1.250818      0.760132     -1.278967
  C      -2.191813     -0.225900     -1.063498
  C      -2.851649     -0.291665      0.158015
  C      -2.581957      0.651544      1.141732
  C      -1.644265      1.639285      0.912068
  O      -3.770367     -1.298317      0.416329
  C      -3.171580     -2.572642      0.683135
  C      -2.419307     -2.499219      1.988028
  C      -3.096737     -2.768211      3.171193
  C      -2.512718     -2.549258      4.407375
  C      -1.236266     -2.012163      4.490483
  C      -0.545291     -1.720804      3.333015
  C      -1.121405     -1.978699      2.088838
  N      -0.311448     -1.699334      0.951352
  O       0.462735     -0.751551      1.014947
  O      -0.383823     -2.430979     -0.032021
  C       3.478472      4.898640     -2.195672
  N       2.294425      4.251138     -1.686197
  H       2.345422      3.854796     -0.762277
  H       3.245707      5.291768     -3.183676
  H       3.776541      5.717684     -1.540983
  H       4.297028      4.182867     -2.273435
  C      -2.445638      3.514752     -2.235227
  O      -2.857339      3.423797     -1.089821
  C      -3.328128      3.570440     -3.449577
  H      -3.183849      4.510680     -3.975772
  H      -3.079632      2.754120     -4.122913
  H      -4.365290      3.483976     -3.140982
>
47
Coordinates from ORCA-job /home/esp/scriptDevelopment/drFrankenstein/11_PCY_CHARMM/04_torsion_scanning/torsion_NH1-CT1-CG321-CG2R61/scans_PCY_conformer_41/PCY_conformer_41_backwards/orca_scan Relaxed Surface Scan Step 12 E -79.888478867330
  H      -4.135568     -3.184890      0.868366
  H      -4.142625     -3.047021      3.217777
  H      -2.512361     -0.983128     -1.791348
  H       0.376924      3.186088      0.295815
  H      -2.665911     -2.870030     -0.095308
  H      -0.776342      0.696325     -2.259286
  H      -3.035703      0.643381      2.115364
  H       1.098571      2.005383     -0.803188
  H      -0.688823     -1.848884      5.428621
  H      -1.309989      2.341521      1.645298
  H       0.492820     -1.401482      3.293830
  H      -0.832855      4.031321     -3.466080
  H      -3.008990     -2.711853      5.371268
  N      -1.081721      3.566962     -2.583936
  C       0.010269      3.526744     -1.768473
  C       1.119804      4.287419     -2.327650
  C       0.197642      2.600878     -0.612708
  O       0.966608      4.897567     -3.407410
  C      -0.923113      1.637730     -0.339339
  C      -1.276260      0.696987     -1.301702
  C      -2.249286     -0.247073     -1.046141
  C      -2.873665     -0.271793      0.195467
  C      -2.536936      0.670769      1.158603
  C      -1.567906      1.617272      0.888519
  O      -3.823640     -1.237415      0.494387
  C      -3.269214     -2.533276      0.752919
  C      -2.470530     -2.480899      2.031016
  C      -3.117876     -2.711352      3.238915
  C      -2.482967     -2.508139      4.452486
  C      -1.182564     -2.026107      4.487350
  C      -0.519975     -1.773386      3.304468
  C      -1.149065     -2.015563      2.083060
  N      -0.367325     -1.779297      0.916239
  O       0.445713     -0.863071      0.944344
  O      -0.502471     -2.515945     -0.056534
  C       3.433122      5.060667     -2.089560
  N       2.280911      4.316532     -1.642687
  H       2.355165      3.833591     -0.762689
  H       3.179639      5.532451     -3.037175
  H       3.696890      5.828517     -1.362056
  H       4.282604      4.392682     -2.232495
  C      -2.423581      3.441419     -2.310078
  O      -2.864919      3.290256     -1.182630
  C      -3.273717      3.528151     -3.545893
  H      -3.152618      4.501076     -4.015638
  H      -2.974393      2.760820     -4.255047
  H      -4.314761      3.386063     -3.273031
>
47
Coordinates from ORCA-job /home/esp/scriptDevelopment/drFrankenstein/11_PCY_CHARMM/04_torsion_scanning/torsion_NH1-CT1-CG321-CG2R61/scans_PCY_conformer_41/PCY_conformer_41_backwards/orca_scan Relaxed Surface Scan Step 13 E -79.887096410090
  H      -4.221610     -3.133505      0.982521
  H      -4.162235     -2.952835      3.328033
  H      -2.604587     -1.040050     -1.763080
  H       0.557563      2.975869      0.188747
  H      -2.768543     -2.885334     -0.024772
  H      -0.830978      0.573035     -2.316650