
                                 *****************
                                 * O   R   C   A *
                                 *****************

                                            #,                                       
                                            ###                                      
                                            ####                                     
                                            #####                                    
                                            ######                                   
                                           ########,                                 
                                     ,,################,,,,,                         
                               ,,#################################,,                 
                          ,,##########################################,,             
                       ,#########################################, ''#####,          
                    ,#############################################,,   '####,        
                  ,##################################################,,,,####,       
                ,###########''''           ''''###############################       
              ,#####''   ,,,,##########,,,,          '''####'''          '####       
            ,##' ,,,,###########################,,,                        '##       
           ' ,,###''''                  '''############,,,                           
         ,,##''                                '''############,,,,        ,,,,,,###''
      ,#''                                            '''#######################'''  
     '                                                          ''''####''''         
             ,#######,   #######,   ,#######,      ##                                
            ,#'     '#,  ##    ##  ,#'     '#,    #''#        ,####,   ,####,        
            ##       ##  ##   ,#'  ##            #'  '#       #'       #'  '#        
            ##       ##  #######   ##           ,######,      #####,   #    #        
            '#,     ,#'  ##    ##  '#,     ,#' ,#      #,     #,   #   #,  ,#        
             '#######'   ##     ##  '#######'  #'      '#     '####' # '####'        



                #########################################################
                #                        -***-                          #
                #          Department of theory and spectroscopy        #
                #                                                       #
                #                      Frank Neese                      #
                #                                                       #
                #     Directorship, Architecture, Infrastructure        #
                #                    SHARK, DRIVERS                     #
                #        Core code/Algorithms in most modules           #
                #                                                       #
                #        Max Planck Institute fuer Kohlenforschung      #
                #                Kaiser Wilhelm Platz 1                 #
                #                 D-45470 Muelheim/Ruhr                 #
                #                      Germany                          #
                #                                                       #
                #                  All rights reserved                  #
                #                        -***-                          #
                #########################################################


                         Program Version 6.0.1  -  RELEASE   -


 With contributions from (in alphabetic order):
[Max-Planck-Institut fuer Kohlenforschung]                               
  Daniel Aravena         : Magnetic Suceptibility                        
  Michael Atanasov       : Ab Initio Ligand Field Theory (pilot matlab implementation)
  Alexander A. Auer      : GIAO ZORA, VPT2 properties, NMR spectrum      
  Ute Becker             : All parallelization in ORCA, NUMFREQ, NUMCALC 
  Giovanni Bistoni       : ED, misc. LED, open-shell LED, HFLD           
  Martin Brehm           : Molecular dynamics                            
  Dmytro Bykov           : pre 5.0 version of the SCF Hessian            
  Marcos Casanova-Páez   : Triplet and SCS-CIS(D). UHF-(DLPNO)-IP/EA/STEOM-CCSD. UHF-CVS-IP/STEOM-CCSD   
  Vijay G. Chilkuri      : MRCI spin determinant printing, contributions to CSF-ICE 
  Pauline Colinet        : FMM embedding                                 
  Dipayan Datta          : RHF DLPNO-CCSD density                        
  Achintya Kumar Dutta   : EOM-CC, STEOM-CC                              
  Nicolas Foglia         : Exact transition moments, OPA infrastructure, MCD improvements    
  Dmitry Ganyushin       : Spin-Orbit,Spin-Spin,Magnetic field MRCI      
  Miquel Garcia-Rates    : C-PCM and meta-GGA Hessian, CCSD/C-PCM, Gaussian charge scheme 
  Tiago L. C. Gouveia    : GS-ROHF, GS-ROCIS                             
  Yang Guo               : DLPNO-NEVPT2, F12-NEVPT2, CIM, IAO-localization        
  Andreas Hansen         : Spin unrestricted coupled pair/coupled cluster methods 
  Ingolf Harden          : AUTO-CI MPn and infrastructure                
  Benjamin Helmich-Paris : MC-RPA, TRAH-(SCF,CASSCF), AVAS, COSX integrals, SCF dyn. polar. 
  Lee Huntington         : MR-EOM, pCC                                   
  Robert Izsak           : Overlap fitted RIJCOSX, COSX-SCS-MP3, EOM     
  Riya Kayal             : Wick's Theorem for AUTO-CI, AUTO-CI UHF-CCSDT 
  Emily Kempfer          : AUTO-CI, RHF CISDT and CCSDT                  
  Christian Kollmar      : KDIIS, OOCD, Brueckner-CCSD(T), CCSD density, CASPT2, CASPT2-K, improved NEVPT2 
  Axel Koslowski         : Symmetry handling                             
  Simone Kossmann        : meta-GGA functionals, TD-DFT gradient, OOMP2, (MP2 Hessian; deprecated post 5.0) 
  Lucas Lang             : DCDCAS                                        
  Marvin Lechner         : AUTO-CI (C++ implementation), FIC-MRCC        
  Spencer Leger          : CASSCF response                               
  Dagmar Lenk            : GEPOL surface, SMD, ORCA-2-JSON               
  Dimitrios Liakos       : Extrapolation schemes; Compound Job, initial MDCI parallelization 
  Dimitrios Manganas     : Further ROCIS development; embedding schemes. LFT, Crystal Embedding 
  Dimitrios Pantazis     : SARC Basis sets                               
  Anastasios Papadopoulos: AUTO-CI, single reference methods and gradients 
  Taras Petrenko         : pre 6.0 DFT Hessian and TD-DFT gradient, (ASA, deprecated), ECA, 1-Electron XAS/XES, NRVS 
  Peter Pinski           : DLPNO-MP2, DLPNO-MP2 Gradient                 
  Christoph Reimann      : Effective Core Potentials                     
  Marius Retegan         : Local ZFS, SOC                                
  Christoph Riplinger    : Optimizer, TS searches, QM/MM, DLPNO-CCSD(T), (RO)-DLPNO pert. Triples 
  Michael Roemelt        : Original ROCIS implementation                 
  Masaaki Saitow         : Open-shell DLPNO-CCSD energy and density      
  Barbara Sandhoefer     : DKH picture change effects                    
  Kantharuban Sivalingam : CASSCF convergence/infrastructure, NEVPT2 and variants, FIC-MRCI 
  Bernardo de Souza      : ESD, SOC TD-DFT                               
  Georgi L. Stoychev     : AutoAux, RI-MP2 NMR, DLPNO-MP2 response, X2C  
  Van Anh Tran           : RI-MP2 g-tensors                              
  Willem Van den Heuvel  : Paramagnetic NMR                              
  Zikuan Wang            : NOTCH, Electric field optimization            
  Frank Wennmohs         : Technical directorship and infrastructure     
  Hang Xu                : AUTO-CI-Response properties                   
                                                                         
[FACCTs GmbH]                                                            
  Markus Bursch, Miquel Garcia-Rates, Christoph Riplinger, Bernardo de Souza, Georgi L. Stoychev 
                                                                 
  APM, Basis sets (HGBS, AHGBS, def-TZVP (Ac-Lr), def2-XVPD (La-Lu)), CI-OPT, improved COSX, DLPNO-Multilevel,           
  DOCKER, DRACO, updates on ESD, GOAT, IRC, LR-CPCM, MBIS, meta-GGA TD-DFT gradient, ML-optimized integration grids, 
  MM, NACMEs, nearIR, NEB, NEB-TS, NL-DFT gradient (VV10), 2- and 3-layer-ONIOM, interface openCOSMO-RS, QMMM,   
  Crystal-QMMM, SF, symmetry and pop. for TD-DFT, r2SCAN hybrids, SOLVATOR                                   
                                                                         
[Other institutions]                                                     
  V. Asgeirsson          : NEB                                           
  Christoph Bannwarth    : sTDA-DFT, sTD-DFT, PBEh-3c, B97-3c, D3        
  Sebastian Ehlert       : rSCAN, r2SCAN, r2SCAN-3c, D4, dhf basis sets  
  Marvin Friede          : D4 for Fr, Ra, Ac-Lr                          
  Lars Goerigk           : TD-DFT with DH, B97 family of functionals     
  Stefan Grimme          : VdW corrections, initial TS optimization, DFT functionals, gCP, sTDA/sTD-DF 
  Waldemar Hujo          : DFT-NL                                        
  H. Jonsson             : NEB                                           
  Holger Kruse           : gCP                                           
  Marcel Mueller         : wB97X-3c, vDZP basis set                      
  Hagen Neugebauer       : wr2SCAN                                       
  Tobias Risthaus        : range-separated hybrid DFT                    
  Lukas Wittmann         : regularized MP2, r2SCAN double-hybrids, wr2SCAN        
                                                                         
We gratefully acknowledge several colleagues who have allowed us to      
interface, adapt or use parts of their codes:                            
  Ed Valeev, F. Pavosevic, A. Kumar             : LibInt (2-el integral package), F12 methods 
  Garnet Chan, S. Sharma, J. Yang, R. Olivares  : DMRG                   
  Ulf Ekstrom                                   : XCFun DFT Library      
  Mihaly Kallay                                 : mrcc  (arbitrary order and MRCC methods)
  Frank Weinhold                                : gennbo (NPA and NBO analysis)           
  Simon Mueller                                 : openCOSMO-RS                            
  Christopher J. Cramer and Donald G. Truhlar   : smd solvation model                     
  S Lehtola, MJT Oliveira, MAL Marques          : LibXC Library                           
  Liviu Ungur et al                             : ANISO software                          


 Your calculation uses the libint2 library for the computation of 2-el integrals
 For citations please refer to: http://libint.valeyev.net

 Your ORCA version has been built with support for libXC version: 6.2.2
 For citations please refer to: https://libxc.gitlab.io

 This ORCA versions uses:
   CBLAS   interface :  Fast vector & matrix operations
   LAPACKE interface :  Fast linear algebra routines
   SCALAPACK package :  Parallel linear algebra routines
   Shared memory     :  Shared parallel matrices
   BLAS/LAPACK       :  OpenBLAS 0.3.27  USE64BITINT DYNAMIC_ARCH NO_AFFINITY Haswell SINGLE_THREADED
        Core in use  :  Haswell
   Copyright (c) 2011-2014, The OpenBLAS Project




***************************************
The coordinates will be read from file: /home/esp/scriptDevelopment/drFrankenstein/10_C8X_AMBER/01_termini_capping/geometry_optimisation/C8X_capped.xyz
***************************************


Your calculation utilizes the semiempirical GFN2-xTB method
Please cite in your paper:
C. Bannwarth, Ehlert S., S. Grimme,  J. Chem. Theory Comput., 15, (2019), 1652.
   

================================================================================

cite the ECPs for Pd [Def2-ECP] as follows:
Ce-Yb(ecp-28): M. Dolg, H. Stoll, H.Preuss, J. Chem. Phys., 1989, 90, 1730-1734.
Y-Cd(ecp-28), Hf-Hg(ecp-46): D. Andrae,U. Haeussermann, M. Dolg, H. Stoll, H. Preuss, Theor. Chim. Acta, 1990, 77, 123-141.
In-Sb(ecp-28), Tl-Bi(ecp-46): B. Metz, H. Stoll, M. Dolg, J. Chem. Phys., 2000, 113, 2563-2569.
Te-Xe(ecp-28), Po-Rn(ecp-46): K. A. Peterson, D. Figgen, E. Goll, H. Stoll, M. Dolg, J. Chem. Phys., 2003, 119, 11113-11123.
Rb(ecp-28), Cs(ecp-46): T. Leininger, A. Nicklass, W. Kuechle, H. Stoll, M. Dolg, A. Bergner, Chem. Phys. Lett., 1996, 255, 274-280.
Sr(ecp-28), Ba(ecp-46): M. Kaupp, P. V. Schleyer, H. Stoll and H. Preuss, J. Chem. Phys., 1991, 94, 1360-1366.
La(ecp-46): M. Dolg, H. Stoll, A. Savin, H. Preuss, Theor. Chim. Acta, 1989, 75, 173-194.
Lu(ecp-28): X. Cao, M. Dolg, J. Chem. Phys., 2001, 115, 7348-7355.

ECP parameters for Pd [Def2-ECP] have been obtained from:
TURBOMOLE (7.0.2)

================================================================================
                                        WARNINGS
                       Please study these warnings very carefully!
================================================================================


WARNING: Geometry Optimization
  ===> : Switching off AutoStart
         For restart on a previous wavefunction, please use MOREAD

WARNING: Found dipole moment calculation with XTB calculation
  ===> : Switching off dipole moment calculation


================================================================================
                                       INPUT FILE
================================================================================
NAME = /home/esp/scriptDevelopment/drFrankenstein/10_C8X_AMBER/01_termini_capping/geometry_optimisation/orca_opt.inp
|  1>  # --------------------------------- #
|  2>  #  Geometry Optimisation            #
|  3>  # --------------------------------- #
|  4> ! XTB2 ALPB(water) Opt
|  5> %geom
|  6> MaxIter 10
|  7> end
|  8> *xyzfile 2 1 /home/esp/scriptDevelopment/drFrankenstein/10_C8X_AMBER/01_termini_capping/geometry_optimisation/C8X_capped.xyz
|  9> 
| 10> 
| 11>                          ****END OF INPUT****
================================================================================

                       *****************************
                       * Geometry Optimization Run *
                       *****************************

Geometry optimization settings:
Update method            Update   .... BFGS
Choice of coordinates    CoordSys .... (2022) Redundant Internals
Initial Hessian          InHess   .... Almloef's Model
Max. no of cycles        MaxIter  .... 10

Convergence Tolerances:
Energy Change            TolE     ....  5.0000e-06 Eh
Max. Gradient            TolMAXG  ....  3.0000e-04 Eh/bohr
RMS Gradient             TolRMSG  ....  1.0000e-04 Eh/bohr
Max. Displacement        TolMAXD  ....  4.0000e-03 bohr
RMS Displacement         TolRMSD  ....  2.0000e-03 bohr
Strict Convergence                .... False

------------------------------------------------------------------------------
                        ORCA OPTIMIZATION COORDINATE SETUP
------------------------------------------------------------------------------

The optimization will be done in redundant internal coordinates (2022)
Making redundant internal coordinates   ...  (2022 redundants) done
Evaluating the initial hessian          ...  (Almloef) done
Evaluating the coordinates              ...  done
Calculating the B-matrix                .... done
Calculating the G-matrix                .... done
Diagonalizing the G-matrix              .... done
Small eigenvalue found = 1.213e-03
Small eigenvalue found = 3.683e-03
Small eigenvalue found = 7.858e-03
Small eigenvalue found = 1.183e-02
Small eigenvalue found = 1.877e-02
Small eigenvalue found = 2.569e-02
The first mode is                       ....  100
The number of degrees of freedom        ....  129

    -----------------------------------------------------------------
                    Redundant Internal Coordinates


    -----------------------------------------------------------------
         Definition                    Initial Value    Approx d2E/dq
    -----------------------------------------------------------------
      1. B(C   1,N   0)                  1.4791         0.403387   
      2. B(C   2,C   1)                  1.5374         0.363613   
      3. B(O   3,C   2)                  1.2408         0.967974   
      4. B(C   4,C   1)                  1.5294         0.374463   
      5. B(S   5,C   4)                  1.8098         0.360381   
      6. B(C   7,S   5)                  1.8234         0.342790   
      7. B(C   9,C   7)                  1.5091         0.403420   
      8. B(C  10,C   9)                  1.3910         0.622509   
      9. B(C  11,C  10)                  1.3786         0.651536   
     10. B(C  12,N   6)                  1.3454         0.659295   
     11. B(C  12,C  11)                  1.3905         0.623588   
     12. B(C  13,C   9)                  1.3823         0.642815   
     13. B(C  13,N   6)                  1.3368         0.680296   
     14. B(C  14,C  12)                  1.4846         0.441422   
     15. B(C  14,N   8)                  1.3457         0.658406   
     16. B(C  15,C  14)                  1.3862         0.633483   
     17. B(C  16,C  15)                  1.3797         0.648969   
     18. B(C  17,C  16)                  1.3742         0.662068   
     19. B(C  18,C  17)                  1.3762         0.657300   
     20. B(C  18,N   8)                  1.3414         0.669090   
     21. B(H  19,N   0)                  1.0106         0.431717   
     22. B(H  20,C   1)                  0.9848         0.530038   
     23. B(H  21,C   4)                  0.9702         0.559132   
     24. B(H  22,C   4)                  0.9706         0.558429   
     25. B(H  23,C   7)                  0.9738         0.551845   
     26. B(H  24,C   7)                  0.9744         0.550689   
     27. B(H  25,C  10)                  0.9427         0.618598   
     28. B(H  26,C  11)                  0.9468         0.609388   
     29. B(H  27,C  13)                  0.9401         0.624597   
     30. B(H  28,C  15)                  0.9470         0.608924   
     31. B(H  29,C  16)                  0.9437         0.616273   
     32. B(H  30,C  17)                  0.9439         0.615901   
     33. B(H  31,C  18)                  0.9446         0.614292   
     34. B(Pd 32,N   8)                  2.3482         0.167592   
     35. B(Pd 32,N   6)                  2.4485         0.115930   
     36. B(N  34,C  33)                  1.4477         0.452669   
     37. B(N  34,C   2)                  1.4342         0.475760   
     38. B(H  35,N  34)                  1.0281         0.404879   
     39. B(H  36,C  33)                  1.1096         0.335140   
     40. B(H  37,Pd 32)                  4.3395         0.000024   
     41. B(H  37,C  33)                  1.1260         0.315466   
     42. B(H  38,C  33)                  1.1085         0.336491   
     43. B(C  39,N   0)                  1.3968         0.545854   
     44. B(O  40,C  39)                  1.2074         1.094367   
     45. B(C  41,C  39)                  1.5068         0.406772   
     46. B(H  42,C  41)                  1.0902         0.359845   
     47. B(H  43,C  41)                  1.0898         0.360371   
     48. B(H  44,C  41)                  1.0898         0.360303   
     49. A(C   1,N   0,H  19)          109.5182         0.333543   
     50. A(H  19,N   0,C  39)          110.9807         0.350870   
     51. A(C   1,N   0,C  39)          139.5011         0.388196   
     52. A(C   4,C   1,H  20)          111.7629         0.345974   
     53. A(N   0,C   1,C   2)          113.2628         0.364175   
     54. A(C   2,C   1,C   4)          107.1531         0.361825   
     55. A(N   0,C   1,C   4)          111.8944         0.366013   
     56. A(N   0,C   1,H  20)          102.9888         0.348187   
     57. A(C   2,C   1,H  20)          109.8349         0.344269   
     58. A(C   1,C   2,O   3)          116.2004         0.424467   
     59. A(C   1,C   2,N  34)          131.2041         0.374647   
     60. A(O   3,C   2,N  34)          112.5956         0.442578   
     61. A(C   1,C   4,H  21)          108.2610         0.349101   
     62. A(C   1,C   4,S   5)          115.4054         0.380389   
     63. A(C   1,C   4,H  22)          108.2731         0.349026   
     64. A(H  21,C   4,H  22)          107.8244         0.335255   
     65. A(S   5,C   4,H  22)          108.4317         0.364877   
     66. A(S   5,C   4,H  21)          108.4103         0.364956   
     67. A(C   4,S   5,C   7)          103.9875         0.394669   
     68. A(C  13,N   6,Pd 32)          124.7552         0.363558   
     69. A(C  12,N   6,C  13)          118.4236         0.440470   
     70. A(C  12,N   6,Pd 32)          115.6139         0.361616   
     71. A(C   9,C   7,H  23)          108.9443         0.352738   
     72. A(S   5,C   7,C   9)          114.3572         0.382005   
     73. A(H  23,C   7,H  24)          108.0757         0.333750   
     74. A(C   9,C   7,H  24)          108.9338         0.352613   
     75. A(S   5,C   7,H  24)          108.1875         0.360910   
     76. A(S   5,C   7,H  23)          108.1711         0.361039   
     77. A(C  14,N   8,Pd 32)          117.4125         0.385241   
     78. A(C  18,N   8,Pd 32)          119.3562         0.386323   
     79. A(C  14,N   8,C  18)          117.5287         0.439045   
     80. A(C  10,C   9,C  13)          117.2733         0.437218   
     81. A(C   7,C   9,C  13)          121.5595         0.404655   
     82. A(C   7,C   9,C  10)          121.1664         0.402370   
     83. A(C  11,C  10,H  25)          119.5098         0.390659   
     84. A(C   9,C  10,H  25)          120.3768         0.387564   
     85. A(C   9,C  10,C  11)          120.1134         0.438282   
     86. A(C  10,C  11,H  26)          120.6618         0.389637   
     87. A(C  10,C  11,C  12)          118.6451         0.438419   
     88. A(C  12,C  11,H  26)          120.6931         0.386668   
     89. A(N   6,C  12,C  11)          121.8926         0.436473   
     90. A(N   6,C  12,C  14)          116.1557         0.410337   
     91. A(C  11,C  12,C  14)          121.9407         0.408946   
     92. A(N   6,C  13,C   9)          123.6419         0.441362   
     93. A(C   9,C  13,H  27)          118.5743         0.390398   
     94. A(N   6,C  13,H  27)          117.7838         0.391777   
     95. A(C  12,C  14,C  15)          121.6452         0.410088   
     96. A(N   8,C  14,C  15)          122.1257         0.437607   
     97. A(N   8,C  14,C  12)          116.2279         0.410239   
     98. A(C  16,C  15,H  28)          120.6450         0.389317   
     99. A(C  14,C  15,H  28)          120.2718         0.387679   
    100. A(C  14,C  15,C  16)          119.0832         0.439353   
    101. A(C  17,C  16,H  29)          120.4005         0.391498   
    102. A(C  15,C  16,H  29)          120.3220         0.390133   
    103. A(C  15,C  16,C  17)          119.2774         0.442870   
    104. A(C  18,C  17,H  30)          120.7261         0.390963   
    105. A(C  16,C  17,H  30)          120.9012         0.391457   
    106. A(C  16,C  17,C  18)          118.3727         0.443893   
    107. A(C  17,C  18,H  31)          118.5272         0.390784   
    108. A(N   8,C  18,H  31)          117.8610         0.389507   
    109. A(N   8,C  18,C  17)          123.6118         0.441815   
    110. A(N   6,Pd 32,N   8)           67.8805         0.320485   
    111. A(H  37,C  33,H  38)          105.2122         0.281900   
    112. A(H  36,C  33,H  38)          110.8260         0.284560   
    113. A(N  34,C  33,H  38)          110.2411         0.329038   
    114. A(H  36,C  33,H  37)          109.3409         0.281725   
    115. A(N  34,C  33,H  37)          108.7641         0.325558   
    116. A(N  34,C  33,H  36)          112.1956         0.328819   
    117. A(C  33,N  34,H  35)          118.6781         0.336386   
    118. A(C   2,N  34,H  35)          107.1219         0.339188   
    119. A(C   2,N  34,C  33)          134.1999         0.386698   
    120. A(O  40,C  39,C  41)          120.0172         0.442784   
    121. A(N   0,C  39,C  41)          129.5524         0.391249   
    122. A(N   0,C  39,O  40)          110.4304         0.464024   
    123. A(H  43,C  41,H  44)          109.5250         0.290899   
    124. A(H  42,C  41,H  44)          109.4900         0.290833   
    125. A(C  39,C  41,H  44)          109.4929         0.328928   
    126. A(H  42,C  41,H  43)          109.4441         0.290841   
    127. A(C  39,C  41,H  43)          109.4586         0.328938   
    128. A(C  39,C  41,H  42)          109.4167         0.328859   
    129. D(C   2,C   1,N   0,C  39)    -48.8306         0.013889   
    130. D(C   4,C   1,N   0,H  19)      9.9055         0.013889   
    131. D(H  20,C   1,N   0,H  19)   -110.2786         0.013889   
    132. D(C   4,C   1,N   0,C  39)   -170.0789         0.013889   
    133. D(C   2,C   1,N   0,H  19)    131.1537         0.013889   
    134. D(O   3,C   2,C   1,H  20)     10.0190         0.009926   
    135. D(N  34,C   2,C   1,C   4)     68.4582         0.009926   
    136. D(N  34,C   2,C   1,N   0)    -55.4234         0.009926   
    137. D(O   3,C   2,C   1,N   0)    124.5476         0.009926   
    138. D(O   3,C   2,C   1,C   4)   -111.5707         0.009926   
    139. D(H  21,C   4,C   1,C   2)    -67.1914         0.011194   
    140. D(H  21,C   4,C   1,N   0)     57.5245         0.011194   
    141. D(S   5,C   4,C   1,H  20)    -65.9004         0.011194   
    142. D(H  21,C   4,C   1,H  20)    172.4388         0.011194   
    143. D(S   5,C   4,C   1,C   2)     54.4694         0.011194   
    144. D(S   5,C   4,C   1,N   0)    179.1853         0.011194   
    145. D(C   7,S   5,C   4,H  22)     57.5366         0.003579   
    146. D(C   7,S   5,C   4,C   1)    179.1491         0.003579   
    147. D(C   7,S   5,C   4,H  21)    -59.2705         0.003579   
    148. D(H  24,C   7,S   5,C   4)   -167.1686         0.003374   
    149. D(C   9,C   7,S   5,C   4)     71.2543         0.003374   
    150. D(H  23,C   7,S   5,C   4)    -50.3243         0.003374   
    151. D(C  13,C   9,C   7,H  23)    167.7634         0.012069   
    152. D(C  13,C   9,C   7,S   5)     46.6107         0.012069   
    153. D(C  10,C   9,C   7,H  23)    -12.5659         0.012069   
    154. D(C  10,C   9,C   7,S   5)   -133.7186         0.012069   
    155. D(C  10,C   9,C   7,H  24)    105.1152         0.012069   
    156. D(H  25,C  10,C   9,C  13)    179.0592         0.026828   
    157. D(H  25,C  10,C   9,C   7)     -0.6252         0.026828   
    158. D(C  11,C  10,C   9,C   7)    179.3456         0.026828   
    159. D(C  11,C  10,C   9,C  13)     -0.9701         0.026828   
    160. D(H  26,C  11,C  10,H  25)      0.9473         0.029566   
    161. D(H  26,C  11,C  10,C   9)   -179.0237         0.029566   
    162. D(C  12,C  11,C  10,H  25)   -179.0279         0.029566   
    163. D(C  12,C  11,C  10,C   9)      1.0011         0.029566   
    164. D(C  14,C  12,C  11,C  10)   -179.5649         0.026927   
    165. D(N   6,C  12,C  11,H  26)    179.2060         0.026927   
    166. D(N   6,C  12,C  11,C  10)     -0.8188         0.026927   
    167. D(C  14,C  12,N   6,Pd 32)     11.3665         0.035563   
    168. D(C  14,C  12,N   6,C  13)    179.4168         0.035563   
    169. D(C  11,C  12,N   6,Pd 32)   -167.4481         0.035563   
    170. D(C  14,C  12,C  11,H  26)      0.4598         0.026927   
    171. D(C  11,C  12,N   6,C  13)      0.6022         0.035563   
    172. D(H  27,C  13,C   9,C  10)   -179.1245         0.028726   
    173. D(H  27,C  13,C   9,C   7)      0.5585         0.028726   
    174. D(N   6,C  13,C   9,C  10)      0.7783         0.028726   
    175. D(N   6,C  13,C   9,C   7)   -179.5387         0.028726   
    176. D(H  27,C  13,N   6,Pd 32)    -13.8255         0.038085   
    177. D(H  27,C  13,N   6,C  12)    179.3096         0.038085   
    178. D(C   9,C  13,N   6,Pd 32)    166.2710         0.038085   
    179. D(C   9,C  13,N   6,C  12)     -0.5939         0.038085   
    180. D(C  15,C  14,C  12,N   6)   -170.3618         0.013293   
    181. D(N   8,C  14,C  12,C  11)   -171.9433         0.013293   
    182. D(N   8,C  14,C  12,N   6)      9.2428         0.013293   
    183. D(C  15,C  14,N   8,Pd 32)    153.1268         0.035458   
    184. D(C  15,C  14,N   8,C  18)     -0.1344         0.035458   
    185. D(C  12,C  14,N   8,Pd 32)    -26.4756         0.035458   
    186. D(C  15,C  14,C  12,C  11)      8.4522         0.013293   
    187. D(C  12,C  14,N   8,C  18)   -179.7368         0.035458   
    188. D(H  28,C  15,C  14,C  12)     -0.4827         0.027844   
    189. D(H  28,C  15,C  14,N   8)    179.9362         0.027844   
    190. D(C  16,C  15,C  14,C  12)    179.5307         0.027844   
    191. D(C  16,C  15,C  14,N   8)     -0.0505         0.027844   
    192. D(H  29,C  16,C  15,H  28)      0.0595         0.029318   
    193. D(H  29,C  16,C  15,C  14)   -179.9539         0.029318   
    194. D(C  17,C  16,C  15,H  28)   -179.8535         0.029318   
    195. D(C  17,C  16,C  15,C  14)      0.1331         0.029318   
    196. D(H  30,C  17,C  16,H  29)      0.0788         0.030601   
    197. D(H  30,C  17,C  16,C  15)    179.9917         0.030601   
    198. D(C  18,C  17,C  16,H  29)   -179.9448         0.030601   
    199. D(C  18,C  17,C  16,C  15)     -0.0319         0.030601   
    200. D(H  31,C  18,C  17,C  16)    179.8288         0.030130   
    201. D(N   8,C  18,C  17,H  30)    179.8114         0.030130   
    202. D(N   8,C  18,C  17,C  16)     -0.1650         0.030130   
    203. D(H  31,C  18,N   8,Pd 32)     27.5264         0.036725   
    204. D(H  31,C  18,N   8,C  14)   -179.7478         0.036725   
    205. D(C  17,C  18,N   8,Pd 32)   -152.4798         0.036725   
    206. D(H  31,C  18,C  17,H  30)     -0.1948         0.030130   
    207. D(C  17,C  18,N   8,C  14)      0.2461         0.036725   
    208. D(N   6,Pd 32,N   8,C  18)    175.9162         0.001622   
    209. D(N   6,Pd 32,N   8,C  14)     23.1592         0.001622   
    210. D(N   8,Pd 32,N   6,C  13)    175.1035         0.001560   
    211. D(N   8,Pd 32,N   6,C  12)    -17.7016         0.001560   
    212. D(H  35,N  34,C  33,H  37)    -98.6704         0.017483   
    213. D(C   2,N  34,C  33,H  38)   -163.8802         0.017483   
    214. D(C   2,N  34,C  33,H  37)     81.2451         0.017483   
    215. D(C   2,N  34,C  33,H  36)    -39.8448         0.017483   
    216. D(H  35,N  34,C   2,O   3)    179.9850         0.017849   
    217. D(H  35,N  34,C   2,C   1)     -0.0431         0.017849   
    218. D(H  35,N  34,C  33,H  36)    140.2397         0.017483   
    219. D(C  33,N  34,C   2,O   3)      0.0626         0.017849   
    220. D(C  33,N  34,C   2,C   1)   -179.9655         0.017849   
    221. D(C  41,C  39,N   0,H  19)     -0.0036         0.023729   
    222. D(C  41,C  39,N   0,C   1)    179.9806         0.023729   
    223. D(O  40,C  39,N   0,H  19)    179.9929         0.023729   
    224. D(O  40,C  39,N   0,C   1)     -0.0229         0.023729   
    225. D(H  44,C  41,C  39,N   0)      0.0200         0.012262   
    226. D(H  43,C  41,C  39,O  40)     59.9523         0.012262   
    227. D(H  43,C  41,C  39,N   0)   -120.0515         0.012262   
    228. D(H  42,C  41,C  39,O  40)    -59.9734         0.012262   
    229. D(H  42,C  41,C  39,N   0)    120.0228         0.012262   
    -----------------------------------------------------------------

Number of atoms                         .... 45
Number of degrees of freedom            .... 229


         *************************************************************
         *                GEOMETRY OPTIMIZATION CYCLE   1            *
         *************************************************************
---------------------------------
CARTESIAN COORDINATES (ANGSTROEM)
---------------------------------
  N    25.967000   33.489000   16.890000
  C    26.970000   32.957000   17.838000
  C    26.433000   32.810000   19.271000
  O    26.529000   31.682000   19.779000
  C    28.213000   33.845000   17.911000
  S    29.495000   33.293000   19.063000
  N    29.605000   37.190000   21.279000
  C    30.815000   34.538000   18.883000
  N    29.088000   39.504000   22.527000
  C    30.480000   35.889000   19.466000
  C    30.724000   37.060000   18.756000
  C    30.397000   38.282000   19.304000
  C    29.843000   38.314000   20.579000
  C    29.926000   36.016000   20.726000
  C    29.455000   39.588000   21.235000
  C    29.464000   40.792000   20.548000
  C    29.084000   41.943000   21.207000
  C    28.709000   41.869000   22.527000
  C    28.727000   40.639000   23.144000
  H    26.373000   34.247000   16.359000
  H    27.177000   32.069000   17.466000
  H    27.934000   34.738000   18.168000
  H    28.601000   33.899000   17.023000
  H    31.007000   34.642000   17.934000
  H    31.617000   34.196000   19.318000
  H    31.113000   37.025000   17.898000
  H    30.547000   39.083000   18.822000
  H    29.765000   35.237000   21.227000
  H    29.728000   40.821000   19.639000
  H    29.083000   42.772000   20.756000
  H    28.445000   42.642000   23.000000
  H    28.472000   40.586000   24.052000
  Pd   28.204000   37.459000   23.269000
  C    25.300000   33.697000   21.502000
  N    25.824000   33.762000   20.154000
  H    25.787000   34.659000   19.653000
  H    24.745000   32.755000   21.691000
  H    26.157000   33.777000   22.228000
  H    24.661000   34.579000   21.708000
  C    24.642000   33.265000   16.509000
  O    24.167000   32.358000   17.149000
  C    23.809000   33.973000   15.472000
  H    23.486000   33.257000   14.716000
  H    22.935000   34.416000   15.949000
  H    24.403000   34.756000   15.001000

----------------------------
CARTESIAN COORDINATES (A.U.)
----------------------------
  NO LB    ZA    FRAG    MASS        X           Y           Z
   0 N   7.0000    0    14.007   49.070519   63.285038   31.917474
   1 C   6.0000    0    12.011   50.965914   62.279704   33.708935
   2 C   6.0000    0    12.011   49.951131   62.001914   36.416912
   3 O   8.0000    0    15.999   50.132545   59.870303   37.376893
   4 C   6.0000    0    12.011   53.314843   63.957781   33.846885
   5 S  16.0000    0    32.060   55.737472   62.914652   36.023849
   6 N   7.0000    0    14.007   55.945342   70.278915   40.211482
   7 C   6.0000    0    12.011   58.231911   65.267361   35.683699
   8 N   7.0000    0    14.007   54.968354   74.651741   42.569861
   9 C   6.0000    0    12.011   57.598853   67.820381   36.785409
  10 C   6.0000    0    12.011   58.059946   70.033251   35.443703
  11 C   6.0000    0    12.011   57.442005   72.342496   36.479273
  12 C   6.0000    0    12.011   56.395097   72.402967   38.888674
  13 C   6.0000    0    12.011   56.551944   68.060376   39.166464
  14 C   6.0000    0    12.011   55.661883   74.810478   40.128334
  15 C   6.0000    0    12.011   55.678891   77.085708   38.830093
  16 C   6.0000    0    12.011   54.960795   79.260783   40.075422
  17 C   6.0000    0    12.011   54.252148   79.120944   42.569861
  18 C   6.0000    0    12.011   54.286163   76.796580   43.735822
  19 H   1.0000    0     1.008   49.837747   64.717451   30.914030
  20 H   1.0000    0     1.008   51.357087   60.601627   33.005957
  21 H   1.0000    0     1.008   52.787610   65.645306   34.332544
  22 H   1.0000    0     1.008   54.048057   64.059826   32.168808
  23 H   1.0000    0     1.008   58.594738   65.463893   33.890348
  24 H   1.0000    0     1.008   59.747471   64.621075   36.505729
  25 H   1.0000    0     1.008   58.795049   69.967110   33.822318
  26 H   1.0000    0     1.008   57.725464   73.856166   35.568425
  27 H   1.0000    0     1.008   56.247698   66.588280   40.113217
  28 H   1.0000    0     1.008   56.177779   77.140511   37.112332
  29 H   1.0000    0     1.008   54.958905   80.827366   39.223156
  30 H   1.0000    0     1.008   53.753260   80.581702   43.463701
  31 H   1.0000    0     1.008   53.804282   76.696425   45.451693
  32 Pd 46.0000    0   106.400   53.297836   70.787251   43.972037
  33 C   6.0000    0    12.011   47.810071   63.678102   40.632891
  34 N   7.0000    0    14.007   48.800288   63.800934   38.085541
  35 H   1.0000    0     1.008   48.730368   65.496018   37.138788
  36 H   1.0000    0     1.008   46.761273   61.897980   40.990050
  37 H   1.0000    0     1.008   49.429566   63.829280   42.004833
  38 H   1.0000    0     1.008   46.602536   65.344840   41.022175
  39 C   6.0000    0    12.011   46.566631   62.861740   31.197489
  40 O   8.0000    0    15.999   45.669011   61.147758   32.406913
  41 C   6.0000    0    12.011   44.992490   64.199666   29.237843
  42 H   1.0000    0     1.008   44.382108   62.846622   27.809210
  43 H   1.0000    0     1.008   43.340869   65.036815   30.139242
  44 H   1.0000    0     1.008   46.114987   65.679322   28.347782

      -----------------------------------------------------------      
     |                   =====================                   |     
     |                           x T B                           |     
     |                   =====================                   |     
     |                         S. Grimme                         |     
     |          Mulliken Center for Theoretical Chemistry        |     
     |                    University of Bonn                     |     
      -----------------------------------------------------------      

   * xtb version 6.7.1 (edcfbbe) compiled by 'albert@albert-system' on 2024-07-22

   xtb is free software: you can redistribute it and/or modify it under
   the terms of the GNU Lesser General Public License as published by
   the Free Software Foundation, either version 3 of the License, or
   (at your option) any later version.
   
   xtb is distributed in the hope that it will be useful,
   but WITHOUT ANY WARRANTY; without even the implied warranty of
   MERCHANTABILITY or FITNESS FOR A PARTICULAR PURPOSE.  See the
   GNU Lesser General Public License for more details.
   
   Cite this work as:
   * C. Bannwarth, E. Caldeweyher, S. Ehlert, A. Hansen, P. Pracht,
     J. Seibert, S. Spicher, S. Grimme, WIREs Comput. Mol. Sci., 2020, 11,
     e01493. DOI: 10.1002/wcms.1493
   
   for GFN2-xTB:
   * C. Bannwarth, S. Ehlert and S. Grimme., J. Chem. Theory Comput., 2019,
     15, 1652-1671. DOI: 10.1021/acs.jctc.8b01176
   for GFN1-xTB:
   * S. Grimme, C. Bannwarth, P. Shushkov, J. Chem. Theory Comput., 2017,
     13, 1989-2009. DOI: 10.1021/acs.jctc.7b00118
   for GFN0-xTB:
   * P. Pracht, E. Caldeweyher, S. Ehlert, S. Grimme, ChemRxiv, 2019, preprint.
     DOI: 10.26434/chemrxiv.8326202.v1
   for GFN-FF:
   * S. Spicher and S. Grimme, Angew. Chem. Int. Ed., 2020, 59, 15665-15673.
     DOI: 10.1002/anie.202004239
   
   for ALPB and GBSA implicit solvation:
   * S. Ehlert, M. Stahn, S. Spicher, S. Grimme, J. Chem. Theory Comput.,
     2021, 17, 4250-4261. DOI: 10.1021/acs.jctc.1c00471
   
   for ddCOSMO and CPCM-X implicit solvation:
   * M. Stahn, S. Ehlert, S. Grimme, J. Phys. Chem. A,
     2023, XX, XXXX-XXXX. DOI: 10.1021/acs.jpca.3c04382
   
   for DFT-D4:
   * E. Caldeweyher, C. Bannwarth and S. Grimme, J. Chem. Phys., 2017,
     147, 034112. DOI: 10.1063/1.4993215
   * E. Caldeweyher, S. Ehlert, A. Hansen, H. Neugebauer, S. Spicher,
     C. Bannwarth and S. Grimme, J. Chem. Phys., 2019, 150, 154122.
     DOI: 10.1063/1.5090222
   * E. Caldeweyher, J.-M. Mewes, S. Ehlert and S. Grimme, Phys. Chem. Chem. Phys.
     2020, 22, 8499-8512. DOI: 10.1039/D0CP00502A
   
   for sTDA-xTB:
   * S. Grimme and C. Bannwarth, J. Chem. Phys., 2016, 145, 054103.
     DOI: 10.1063/1.4959605
   
   in the mass-spec context:
   * V. Asgeirsson, C. Bauer and S. Grimme, Chem. Sci., 2017, 8, 4879.
     DOI: 10.1039/c7sc00601b
   * J. Koopman and S. Grimme, ACS Omega 2019, 4, 12, 15120-15133.
     DOI: 10.1021/acsomega.9b02011
   
   for metadynamics refer to:
   * S. Grimme, J. Chem. Theory Comput., 2019, 155, 2847-2862
     DOI: 10.1021/acs.jctc.9b00143
   
   for SPH calculations refer to:
   * S. Spicher and S. Grimme, J. Chem. Theory Comput., 2021, 17, 1701-1714
     DOI: 10.1021/acs.jctc.0c01306
   
   for ONIOM refer to:
   * C. Plett, A. Katbashev, S. Ehlert, S. Grimme, M. Bursch,
     Phys. Chem. Chem. Phys., 2023, 25, 17860-17868. DOI: 10.1039/D3CP02178E
   
   for DIPRO refer to:
   * J. Kohn, N. Gildemeister, S. Grimme, D. Fazzi, A. Hansen,
     J. Chem. Phys., 2023, just accepted.
   
   for PTB refer to:
   * S. Grimme, M. Mueller, A. Hansen, J. Chem. Phys., 2023, 158, 124111.
     DOI: 10.1063/5.0137838
   
   with help from (in alphabetical order)
   P. Atkinson, C. Bannwarth, F. Bohle, G. Brandenburg, E. Caldeweyher
   M. Checinski, S. Dohm, S. Ehlert, S. Ehrlich, I. Gerasimov, C. Hölzer
   A. Katbashev, J. Kohn, J. Koopman, C. Lavigne, S. Lehtola, F. März, M. Müller,
   F. Musil, H. Neugebauer, J. Pisarek, C. Plett, P. Pracht, F. Pultar,
   J. Seibert, P. Shushkov, S. Spicher, M. Stahn, M. Steiner, T. Strunk,
   J. Stückrath, T. Rose, and J. Unsleber
   
 * started run on 2025/07/08 at 11:08:40.231     
   ID    Z sym.   atoms
    1    7 N      1, 7, 9, 35
    2    6 C      2, 3, 5, 8, 10-19, 34, 40, 42
    3    8 O      4, 41
    4   16 S      6
    5    1 H      20-32, 36-39, 43-45
    6   46 Pd     33

           -------------------------------------------------
          |                Calculation Setup                |
           -------------------------------------------------

          program call               : /home/esp/bin/orca_6_0_1_linux_x86-64_shared_openmpi416/otool_xtb /home/esp/scriptDevelopment/drFrankenstein/10_C8X_AMBER/01_termini_capping/geometry_optimisation/orca_opt_XTB.xyz --grad -c 2 -u 0 -P 1 --namespace /home/esp/scriptDevelopment/drFrankenstein/10_C8X_AMBER/01_termini_capping/geometry_optimisation/orca_opt --input /home/esp/scriptDevelopment/drFrankenstein/10_C8X_AMBER/01_termini_capping/geometry_optimisation/orca_opt_XTB.input.tmp --alpb WATER --acc 0.200000
          calculation namespace      : /home/esp/scriptDevelopment/drFrankenstein/10_C8X_AMBER/01_termini_capping/geometry_optimisation/orca_opt
          coordinate file            : /home/esp/scriptDevelopment/drFrankenstein/10_C8X_AMBER/01_termini_capping/geometry_optimisation/orca_opt_XTB.xyz
          omp threads                :                     1


           -------------------------------------------------
          |                 G F N 2 - x T B                 |
           -------------------------------------------------

        Reference                      10.1021/acs.jctc.8b01176
      * Hamiltonian:
        H0-scaling (s, p, d)           1.850000    2.230000    2.230000
        zeta-weighting                 0.500000
      * Dispersion:
        s8                             2.700000
        a1                             0.520000
        a2                             5.000000
        s9                             5.000000
      * Repulsion:
        kExp                           1.500000    1.000000
        rExp                           1.000000
      * Coulomb:
        alpha                          2.000000
        third order                    shell-resolved
        anisotropic                    true
        a3                             3.000000
        a5                             4.000000
        cn-shift                       1.200000
        cn-exp                         4.000000
        max-rad                        5.000000

      * Solvation model:               ALPB
        Solvent                        WATER
        Parameter file                 internal GFN2-xTB/ALPB
        Dielectric constant                8.0200E+01
        Reference state                gsolv [1 M gas/solution]
        Free energy shift                  1.0808E-03 Eh       6.7819E-01 kcal/mol
        Temperature                        2.9815E+02 K
        Density                            1.0000E+00 kg/L
        Solvent mass                       1.8000E+01 g/mol
        Interaction kernel             P16
        Born radius scaling (c1)           1.4744E+00
        Born radii integrator          GBOBC
        Born offset                        0.0000E+00 a0       0.0000E+00 AA
        H-bond correction              true
        Ion screening                  false
        Surface tension                    1.0000E-05 Eh       1.5569E+01 dyn/cm
        Grid points                               230 per atom

          ...................................................
          :                      SETUP                      :
          :.................................................:
          :  # basis functions                 132          :
          :  # atomic orbitals                 130          :
          :  # shells                           72          :
          :  # electrons                       134          :
          :  max. iterations                   250          :
          :  Hamiltonian                  GFN2-xTB          :
          :  restarted?                      false          :
          :  GBSA solvation                   true          :
          :  PC potential                    false          :
          :  electronic temp.          300.0000000     K    :
          :  accuracy                    0.2000000          :
          :  -> integral cutoff          0.3198970E+02      :
          :  -> integral neglect         0.2000000E-08      :
          :  -> SCF convergence          0.2000000E-06 Eh   :
          :  -> wf. convergence          0.2000000E-04 e    :
          :  Broyden damping             0.4000000          :
          :  net charge                          2          :
          :  unpaired electrons                  0          :
          ...................................................

 iter      E             dE          RMSdq      gap      omega  full diag
   1    -74.2479415 -0.742479E+02  0.684E+00    0.20       0.0  T
   2    -74.4768849 -0.228943E+00  0.388E+00    0.28       1.0  T
   3    -74.5221271 -0.452421E-01  0.227E+00    0.08       1.0  T
   4    -74.5109346  0.111924E-01  0.982E-01    0.16       1.0  T
   5    -74.3761031  0.134832E+00  0.406E+00    0.27       1.0  T
   6    -74.3979763 -0.218732E-01  0.372E+00    0.18       1.0  T
   7    -74.5060133 -0.108037E+00  0.175E+00    0.29       1.0  T
   8    -74.5111061 -0.509282E-02  0.151E+00    0.28       1.0  T
   9    -74.5190870 -0.798089E-02  0.115E+00    0.12       1.0  T
  10    -74.5217413 -0.265431E-02  0.105E+00    0.18       1.0  T
  11    -74.5332849 -0.115435E-01  0.904E-02    0.10       1.0  T
  12    -74.5271066  0.617831E-02  0.749E-01    0.08       1.0  T
  13    -74.5291310 -0.202447E-02  0.624E-01    0.14       1.0  T
  14    -74.5328221 -0.369111E-02  0.238E-01    0.11       1.0  T
  15    -74.5328340 -0.118401E-04  0.234E-01    0.11       1.0  T
  16    -74.5334497 -0.615757E-03  0.167E-02    0.10       1.0  T
  17    -74.5334524 -0.263152E-05  0.475E-03    0.10       3.1  T
  18    -74.5334486  0.374205E-05  0.187E-02    0.10       1.0  T
  19    -74.5334519 -0.324262E-05  0.786E-03    0.10       1.9  T
  20    -74.5334525 -0.674001E-06  0.123E-03    0.10      12.1  T
  21    -74.5334525 -0.996531E-08  0.762E-04    0.10      19.6  T
  22    -74.5334525 -0.252129E-08  0.632E-04    0.10      23.6  T
  23    -74.5334525 -0.269854E-08  0.391E-04    0.10      38.1  T
  24    -74.5334525 -0.146001E-08  0.143E-04    0.10     104.3  T
  25    -74.5334525 -0.461853E-11  0.143E-04    0.10     104.4  T

   *** convergence criteria satisfied after 25 iterations ***

         #    Occupation            Energy/Eh            Energy/eV
      -------------------------------------------------------------
         1        2.0000           -0.7630804             -20.7645
       ...           ...                  ...                  ...
        61        2.0000           -0.4189056             -11.3990
        62        2.0000           -0.4176245             -11.3641
        63        2.0000           -0.4137618             -11.2590
        64        1.9997           -0.4111038             -11.1867
        65        1.9989           -0.4099812             -11.1562
        66        1.9748           -0.4069704             -11.0742
        67        1.7721           -0.4047738             -11.0145 (HOMO)
        68        0.2544           -0.4009955             -10.9116 (LUMO)
        69                         -0.3312974              -9.0151
        70                         -0.2985380              -8.1236
        71                         -0.2947443              -8.0204
        72                         -0.2609185              -7.1000
       ...                                ...                  ...
       130                          0.8173885              22.2423
      -------------------------------------------------------------
                  HL-Gap            0.0037783 Eh            0.1028 eV
             Fermi-level           -0.4028250 Eh          -10.9614 eV

 SCC (total)                   0 d,  0 h,  0 min,  0.057 sec
 SCC setup                      ...        0 min,  0.001 sec (  1.334%)
 Dispersion                     ...        0 min,  0.000 sec (  0.508%)
 classical contributions        ...        0 min,  0.000 sec (  0.081%)
 integral evaluation            ...        0 min,  0.011 sec ( 18.791%)
 iterations                     ...        0 min,  0.031 sec ( 54.910%)
 molecular gradient             ...        0 min,  0.014 sec ( 23.941%)
 printout                       ...        0 min,  0.000 sec (  0.387%)

         :::::::::::::::::::::::::::::::::::::::::::::::::::::
         ::                     SUMMARY                     ::
         :::::::::::::::::::::::::::::::::::::::::::::::::::::
         :: total energy             -73.264919220038 Eh    ::
         :: total w/o Gsasa/hb       -73.254014418293 Eh    ::
         :: gradient norm              0.603621341717 Eh/a0 ::
         :: HOMO-LUMO gap              0.102812920887 eV    ::
         ::.................................................::
         :: SCC energy               -74.532673015992 Eh    ::
         :: -> isotropic ES            0.373991043552 Eh    ::
         :: -> anisotropic ES         -0.038630560712 Eh    ::
         :: -> anisotropic XC          0.021902539111 Eh    ::
         :: -> dispersion             -0.048777063571 Eh    ::
         :: -> Gsolv                  -0.284441291838 Eh    ::
         ::    -> Gelec               -0.273536490094 Eh    ::
         ::    -> Gsasa               -0.000929330456 Eh    ::
         ::    -> Ghb                 -0.011056230986 Eh    ::
         ::    -> Gshift               0.001080759698 Eh    ::
         :: repulsion energy           1.267753795954 Eh    ::
         :: add. restraining           0.000000000000 Eh    ::
         :: total charge               2.000000000084 e     ::
         :::::::::::::::::::::::::::::::::::::::::::::::::::::


Property printout bound to 'properties.out'

           -------------------------------------------------
          | TOTAL ENERGY              -73.264919220038 Eh   |
          | GRADIENT NORM               0.603621341717 Eh/α |
          | HOMO-LUMO GAP               0.102812920887 eV   |
           -------------------------------------------------

------------------------------------------------------------------------
 * finished run on 2025/07/08 at 11:08:40.299     
------------------------------------------------------------------------
 total:
 * wall-time:     0 d,  0 h,  0 min,  0.067 sec
 *  cpu-time:     0 d,  0 h,  0 min,  0.061 sec
 * ratio c/w:     0.911 speedup
 SCF:
 * wall-time:     0 d,  0 h,  0 min,  0.057 sec
 *  cpu-time:     0 d,  0 h,  0 min,  0.052 sec
 * ratio c/w:     0.917 speedup


-------------------------   --------------------
FINAL SINGLE POINT ENERGY       -73.264919220040
-------------------------   --------------------


-------------
DIPOLE MOMENT
-------------
                                X             Y             Z
Total Dipole Moment    :    110.42200     144.55000      77.25500
                        -----------------------------------------
Magnitude (a.u.)       :    197.62605
Magnitude (Debye)      :    502.32550

------------------------------------------------------------------------------
                         ORCA GEOMETRY RELAXATION STEP
------------------------------------------------------------------------------

Reading the OPT-File                    .... done
Getting information on internals        .... done
Copying old internal coords+grads       .... done
Making the new internal coordinates     .... (2022 redundants) done
Validating the new internal coordinates .... (2022 redundants) done
Calculating the B-matrix                .... done
Calculating the G,G- and P matrices     .... done
Transforming gradient to internals      .... done
Projecting the internal gradient        .... done
Number of atoms                         ....  45
Number of internal coordinates          .... 229
Current Energy                          ....   -73.264919220 Eh
Current gradient norm                   ....     0.603621342 Eh/bohr
Maximum allowed component of the step   ....  0.300
Current trust radius                    ....  0.300
Evaluating the initial hessian          ....  (Almloef) done
Projecting the Hessian                  .... done
Forming the augmented Hessian           .... done
Diagonalizing the augmented Hessian     .... done
Last element of RFO vector              ....  0.867640318
Lowest eigenvalues of augmented Hessian:
 -0.268147241  0.000150042  0.003377490  0.009934371  0.010004296
Length of the computed step             ....  0.573039757
Warning: the length of the step is outside the trust region - taking restricted step instead
The input lambda is                     ....    -0.000854
   iter:   5  x=   -0.355381  g=    1.751526 f(x)=     0.424879
   iter:  10  x=   -1.007080  g=    0.115012 f(x)=     0.000016
The output lambda is                    ....    -1.007080 (12 iterations)
The final length of the internal step   ....  0.300000000
Converting the step to Cartesian space:
 Initial RMS(Int)=    0.0198245580
Transforming coordinates:
 Iter   0:  RMS(Cart)=    0.0459202321 RMS(Int)=    0.5874761710
done
Storing new coordinates                 .... done

                                .--------------------.
          ----------------------|Geometry convergence|-------------------------
          Item                value                   Tolerance       Converged
          ---------------------------------------------------------------------
          RMS gradient        0.0312406958            0.0001000000      NO
          MAX gradient        0.1489546692            0.0003000000      NO
          RMS step            0.0198245580            0.0020000000      NO
          MAX step            0.0912892903            0.0040000000      NO
          ........................................................
          Max(Bonds)      0.0483      Max(Angles)    2.38
          Max(Dihed)        0.36      Max(Improp)    0.00
          ---------------------------------------------------------------------

The optimization has not yet converged - more geometry cycles are needed


    ---------------------------------------------------------------------------
                         Redundant Internal Coordinates
                            (Angstroem and degrees)

        Definition                    Value    dE/dq     Step     New-Value
    ----------------------------------------------------------------------------
     1. B(C   1,N   0)                1.4791  0.017245 -0.0065    1.4726   
     2. B(C   2,C   1)                1.5374  0.012058 -0.0047    1.5327   
     3. B(O   3,C   2)                1.2408  0.003711 -0.0010    1.2398   
     4. B(C   4,C   1)                1.5294 -0.002314  0.0009    1.5302   
     5. B(S   5,C   4)                1.8098 -0.004046  0.0016    1.8113   
     6. B(C   7,S   5)                1.8234 -0.002005  0.0008    1.8242   
     7. B(C   9,C   7)                1.5091  0.001717 -0.0007    1.5084   
     8. B(C  10,C   9)                1.3910 -0.006637  0.0022    1.3932   
     9. B(C  11,C  10)                1.3786 -0.011350  0.0037    1.3823   
    10. B(C  12,N   6)                1.3454  0.001345 -0.0005    1.3449   
    11. B(C  12,C  11)                1.3905 -0.006957  0.0023    1.3928   
    12. B(C  13,C   9)                1.3823 -0.012433  0.0040    1.3862   
    13. B(C  13,N   6)                1.3368  0.008337 -0.0027    1.3341   
    14. B(C  14,C  12)                1.4846  0.000561 -0.0003    1.4843   
    15. B(C  14,N   8)                1.3457 -0.001241  0.0002    1.3459   
    16. B(C  15,C  14)                1.3862 -0.009995  0.0032    1.3894   
    17. B(C  16,C  15)                1.3797 -0.013650  0.0045    1.3841   
    18. B(C  17,C  16)                1.3742 -0.021356  0.0069    1.3811   
    19. B(C  18,C  17)                1.3762 -0.017011  0.0054    1.3816   
    20. B(C  18,N   8)                1.3414  0.007132 -0.0024    1.3390   
    21. B(H  19,N   0)                1.0106 -0.007873  0.0029    1.0135   
    22. B(H  20,C   1)                0.9848 -0.093340  0.0321    1.0169   
    23. B(H  21,C   4)                0.9702 -0.113889  0.0385    1.0087   
    24. B(H  22,C   4)                0.9706 -0.113086  0.0382    1.0088   
    25. B(H  23,C   7)                0.9738 -0.106677  0.0362    1.0100   
    26. B(H  24,C   7)                0.9744 -0.105233  0.0357    1.0101   
    27. B(H  25,C  10)                0.9427 -0.140917  0.0459    0.9886   
    28. B(H  26,C  11)                0.9468 -0.131443  0.0430    0.9898   
    29. B(H  27,C  13)                0.9401 -0.148955  0.0483    0.9884   
    30. B(H  28,C  15)                0.9470 -0.131549  0.0431    0.9901   
    31. B(H  29,C  16)                0.9437 -0.139290  0.0454    0.9891   
    32. B(H  30,C  17)                0.9439 -0.137457  0.0448    0.9887   
    33. B(H  31,C  18)                0.9446 -0.141690  0.0462    0.9909   
    34. B(Pd 32,N   8)                2.3482  0.026728 -0.0120    2.3362   
    35. B(Pd 32,N   6)                2.4485  0.025085 -0.0118    2.4368   
    36. B(N  34,C  33)                1.4477  0.018230 -0.0066    1.4411   
    37. B(N  34,C   2)                1.4342  0.066407 -0.0237    1.4105   
    38. B(H  35,N  34)                1.0281  0.010094 -0.0038    1.0243   
    39. B(H  36,C  33)                1.1096  0.014313 -0.0056    1.1039   
    40. B(H  37,Pd 32)                4.3395  0.001750 -0.0009    4.3386   
    41. B(H  37,C  33)                1.1260  0.017008 -0.0068    1.1192   
    42. B(H  38,C  33)                1.1085  0.014301 -0.0056    1.1028   
    43. B(C  39,N   0)                1.3968  0.027216 -0.0093    1.3875   
    44. B(O  40,C  39)                1.2074 -0.051361  0.0129    1.2204   
    45. B(C  41,C  39)                1.5068  0.012636 -0.0047    1.5021   
    46. B(H  42,C  41)                1.0902  0.004050 -0.0016    1.0886   
    47. B(H  43,C  41)                1.0898  0.003746 -0.0014    1.0883   
    48. B(H  44,C  41)                1.0898  0.000317 -0.0001    1.0897   
    49. A(C   1,N   0,H  19)          109.52 -0.018530    0.77    110.29   
    50. A(H  19,N   0,C  39)          110.98 -0.019673    0.81    111.79   
    51. A(C   1,N   0,C  39)          139.50  0.038204   -1.59    137.91   
    52. A(C   4,C   1,H  20)          111.76 -0.000812    0.05    111.82   
    53. A(N   0,C   1,C   2)          113.26  0.003265   -0.15    113.11   
    54. A(C   2,C   1,C   4)          107.15 -0.013522    0.57    107.72   
    55. A(N   0,C   1,C   4)          111.89  0.013935   -0.61    111.29   
    56. A(N   0,C   1,H  20)          102.99 -0.013195    0.60    103.59   
    57. A(C   2,C   1,H  20)          109.83  0.011137   -0.50    109.34   
    58. A(C   1,C   2,O   3)          116.20 -0.010944    0.47    116.67   
    59. A(C   1,C   2,N  34)          131.20  0.051338   -2.10    129.10   
    60. A(O   3,C   2,N  34)          112.60 -0.040395    1.63    114.23   
    61. A(C   1,C   4,H  21)          108.26 -0.010425    0.43    108.69   
    62. A(C   1,C   4,S   5)          115.41  0.021764   -0.93    114.48   
    63. A(C   1,C   4,H  22)          108.27 -0.005560    0.22    108.49   
    64. A(H  21,C   4,H  22)          107.82 -0.008544    0.40    108.23   
    65. A(S   5,C   4,H  22)          108.43  0.003499   -0.14    108.29   
    66. A(S   5,C   4,H  21)          108.41 -0.002594    0.10    108.51   
    67. A(C   4,S   5,C   7)          103.99  0.026970   -1.10    102.89   
    68. A(C  13,N   6,Pd 32)          124.76  0.005627   -0.21    124.54   
    69. A(C  12,N   6,C  13)          118.42 -0.013955    0.55    118.97   
    70. A(C  12,N   6,Pd 32)          115.61  0.007793   -0.31    115.31   
    71. A(C   9,C   7,H  23)          108.94 -0.001531    0.08    109.03   
    72. A(S   5,C   7,C   9)          114.36  0.002436   -0.13    114.22   
    73. A(H  23,C   7,H  24)          108.08 -0.004586    0.22    108.30   
    74. A(C   9,C   7,H  24)          108.93 -0.003851    0.16    109.10   
    75. A(S   5,C   7,H  24)          108.19  0.007091   -0.32    107.87   
    76. A(S   5,C   7,H  23)          108.17  0.000076    0.00    108.17   
    77. A(C  14,N   8,Pd 32)          117.41  0.007417   -0.29    117.12   
    78. A(C  18,N   8,Pd 32)          119.36  0.006003   -0.22    119.14   
    79. A(C  14,N   8,C  18)          117.53 -0.015358    0.61    118.14   
    80. A(C  10,C   9,C  13)          117.27 -0.004556    0.19    117.46   
    81. A(C   7,C   9,C  13)          121.56  0.003505   -0.15    121.41   
    82. A(C   7,C   9,C  10)          121.17  0.001059   -0.04    121.13   
    83. A(C  11,C  10,H  25)          119.51 -0.002226    0.08    119.59   
    84. A(C   9,C  10,H  25)          120.38 -0.002826    0.11    120.48   
    85. A(C   9,C  10,C  11)          120.11  0.005052   -0.19    119.92   
    86. A(C  10,C  11,H  26)          120.66  0.001448   -0.06    120.60   
    87. A(C  10,C  11,C  12)          118.65 -0.001101    0.05    118.69   
    88. A(C  12,C  11,H  26)          120.69 -0.000347    0.01    120.71   
    89. A(N   6,C  12,C  11)          121.89  0.005537   -0.23    121.67   
    90. A(N   6,C  12,C  14)          116.16 -0.003472    0.12    116.28   
    91. A(C  11,C  12,C  14)          121.94 -0.002069    0.10    122.04   
    92. A(N   6,C  13,C   9)          123.64  0.009015   -0.37    123.27   
    93. A(C   9,C  13,H  27)          118.57 -0.006429    0.26    118.84   
    94. A(N   6,C  13,H  27)          117.78 -0.002585    0.11    117.89   
    95. A(C  12,C  14,C  15)          121.65 -0.002173    0.12    121.77   
    96. A(N   8,C  14,C  15)          122.13  0.004182   -0.18    121.94   
    97. A(N   8,C  14,C  12)          116.23 -0.002007    0.06    116.29   
    98. A(C  16,C  15,H  28)          120.65  0.000787   -0.03    120.61   
    99. A(C  14,C  15,H  28)          120.27 -0.001437    0.06    120.33   
   100. A(C  14,C  15,C  16)          119.08  0.000650   -0.03    119.06   
   101. A(C  17,C  16,H  29)          120.40 -0.001670    0.06    120.46   
   102. A(C  15,C  16,H  29)          120.32 -0.000970    0.03    120.35   
   103. A(C  15,C  16,C  17)          119.28  0.002640   -0.08    119.20   
   104. A(C  18,C  17,H  30)          120.73  0.001220   -0.06    120.67   
   105. A(C  16,C  17,H  30)          120.90 -0.002020    0.07    120.98   
   106. A(C  16,C  17,C  18)          118.37  0.000800   -0.02    118.36   
   107. A(C  17,C  18,H  31)          118.53 -0.006548    0.27    118.80   
   108. A(N   8,C  18,H  31)          117.86 -0.000536    0.03    117.89   
   109. A(N   8,C  18,C  17)          123.61  0.007085   -0.30    123.31   
   110. A(N   6,Pd 32,N   8)           67.88 -0.010845    0.48     68.36   
   111. A(H  37,C  33,H  38)          105.21 -0.008525    0.40    105.62   
   112. A(H  36,C  33,H  38)          110.83 -0.000823    0.02    110.84   
   113. A(N  34,C  33,H  38)          110.24  0.006298   -0.27    109.97   
   114. A(H  36,C  33,H  37)          109.34  0.001895   -0.09    109.25   
   115. A(N  34,C  33,H  37)          108.76 -0.004192    0.19    108.95   
   116. A(N  34,C  33,H  36)          112.20  0.004409   -0.20    111.99   
   117. A(C  33,N  34,H  35)          118.68 -0.002984    0.11    118.79   
   118. A(C   2,N  34,H  35)          107.12 -0.028047    1.18    108.30   
   119. A(C   2,N  34,C  33)          134.20  0.031030   -1.29    132.91   
   120. A(O  40,C  39,C  41)          120.02 -0.004205    0.21    120.22   
   121. A(N   0,C  39,C  41)          129.55  0.059065   -2.38    127.17   
   122. A(N   0,C  39,O  40)          110.43 -0.054859    2.17    112.61   
   123. A(H  43,C  41,H  44)          109.52 -0.000151    0.02    109.54   
   124. A(H  42,C  41,H  44)          109.49  0.000089    0.01    109.50   
   125. A(C  39,C  41,H  44)          109.49 -0.008604    0.38    109.87   
   126. A(H  42,C  41,H  43)          109.44 -0.001094    0.03    109.47   
   127. A(C  39,C  41,H  43)          109.46  0.004890   -0.21    109.24   
   128. A(C  39,C  41,H  42)          109.42  0.004880   -0.21    109.20   
   129. D(C   2,C   1,N   0,C  39)    -48.83 -0.003293    0.13    -48.70   
   130. D(C   4,C   1,N   0,H  19)      9.91  0.000951   -0.01      9.89   
   131. D(H  20,C   1,N   0,H  19)   -110.28  0.002846   -0.13   -110.41   
   132. D(C   4,C   1,N   0,C  39)   -170.08  0.001645   -0.05   -170.13   
   133. D(C   2,C   1,N   0,H  19)    131.15 -0.003986    0.17    131.32   
   134. D(O   3,C   2,C   1,H  20)     10.02 -0.000042    0.02     10.03   
   135. D(N  34,C   2,C   1,C   4)     68.46  0.005244   -0.25     68.21   
   136. D(N  34,C   2,C   1,N   0)    -55.42 -0.004850    0.22    -55.21   
   137. D(O   3,C   2,C   1,N   0)    124.55 -0.007364    0.36    124.91   
   138. D(O   3,C   2,C   1,C   4)   -111.57  0.002730   -0.10   -111.68   
   139. D(H  21,C   4,C   1,C   2)    -67.19 -0.000901    0.04    -67.15   
   140. D(H  21,C   4,C   1,N   0)     57.52  0.002825   -0.14     57.38   
   141. D(S   5,C   4,C   1,H  20)    -65.90 -0.001899    0.09    -65.81   
   142. D(H  21,C   4,C   1,H  20)    172.44 -0.005401    0.26    172.70   
   143. D(S   5,C   4,C   1,C   2)     54.47  0.002601   -0.13     54.34   
   144. D(S   5,C   4,C   1,N   0)    179.19  0.006327   -0.31    178.87   
   145. D(C   7,S   5,C   4,H  22)     57.54 -0.005356    0.24     57.78   
   146. D(C   7,S   5,C   4,C   1)    179.15  0.004957   -0.22    178.93   
   147. D(C   7,S   5,C   4,H  21)    -59.27  0.004279   -0.21    -59.48   
   148. D(H  24,C   7,S   5,C   4)   -167.17  0.001802   -0.11   -167.27   
   149. D(C   9,C   7,S   5,C   4)     71.25 -0.000075    0.01     71.26   
   150. D(H  23,C   7,S   5,C   4)    -50.32  0.000217   -0.01    -50.33   
   151. D(C  13,C   9,C   7,H  23)    167.76  0.000565   -0.02    167.74   
   152. D(C  13,C   9,C   7,S   5)     46.61 -0.000049    0.00     46.62   
   153. D(C  10,C   9,C   7,H  23)    -12.57  0.002135   -0.10    -12.67   
   154. D(C  10,C   9,C   7,S   5)   -133.72  0.001522   -0.07   -133.79   
   155. D(C  10,C   9,C   7,H  24)    105.12 -0.006422    0.31    105.42   
   156. D(H  25,C  10,C   9,C  13)    179.06  0.000087   -0.00    179.06   
   157. D(H  25,C  10,C   9,C   7)     -0.63 -0.001443    0.07     -0.55   
   158. D(C  11,C  10,C   9,C   7)    179.35 -0.001578    0.08    179.43   
   159. D(C  11,C  10,C   9,C  13)     -0.97 -0.000048    0.01     -0.96   
   160. D(H  26,C  11,C  10,H  25)      0.95  0.000154   -0.01      0.94   
   161. D(H  26,C  11,C  10,C   9)   -179.02  0.000289   -0.02   -179.04   
   162. D(C  12,C  11,C  10,H  25)   -179.03  0.000163   -0.01   -179.04   
   163. D(C  12,C  11,C  10,C   9)      1.00  0.000298   -0.02      0.98   
   164. D(C  14,C  12,C  11,C  10)   -179.56 -0.000394    0.01   -179.55   
   165. D(N   6,C  12,C  11,H  26)    179.21 -0.000694    0.04    179.24   
   166. D(N   6,C  12,C  11,C  10)     -0.82 -0.000702    0.04     -0.78   
   167. D(C  14,C  12,N   6,Pd 32)     11.37  0.002321   -0.12     11.24   
   168. D(C  14,C  12,N   6,C  13)    179.42  0.000500   -0.02    179.40   
   169. D(C  11,C  12,N   6,Pd 32)   -167.45  0.002604   -0.15   -167.59   
   170. D(C  14,C  12,C  11,H  26)      0.46 -0.000385    0.01      0.47   
   171. D(C  11,C  12,N   6,C  13)      0.60  0.000783   -0.04      0.56   
   172. D(H  27,C  13,C   9,C  10)   -179.12 -0.000825    0.04   -179.08   
   173. D(H  27,C  13,C   9,C   7)      0.56  0.000703   -0.03      0.53   
   174. D(N   6,C  13,C   9,C  10)      0.78  0.000219   -0.01      0.77   
   175. D(N   6,C  13,C   9,C   7)   -179.54  0.001747   -0.09   -179.63   
   176. D(H  27,C  13,N   6,Pd 32)    -13.83 -0.001596    0.09    -13.73   
   177. D(H  27,C  13,N   6,C  12)    179.31  0.000451   -0.03    179.28   
   178. D(C   9,C  13,N   6,Pd 32)    166.27 -0.002629    0.14    166.42   
   179. D(C   9,C  13,N   6,C  12)     -0.59 -0.000582    0.03     -0.57   
   180. D(C  15,C  14,C  12,N   6)   -170.36 -0.000411    0.01   -170.36   
   181. D(N   8,C  14,C  12,C  11)   -171.94 -0.000429    0.02   -171.92   
   182. D(N   8,C  14,C  12,N   6)      9.24 -0.000244    0.00      9.25   
   183. D(C  15,C  14,N   8,Pd 32)    153.13 -0.003092    0.17    153.29   
   184. D(C  15,C  14,N   8,C  18)     -0.13 -0.000500    0.02     -0.12   
   185. D(C  12,C  14,N   8,Pd 32)    -26.48 -0.003232    0.17    -26.31   
   186. D(C  15,C  14,C  12,C  11)      8.45 -0.000597    0.03      8.48   
   187. D(C  12,C  14,N   8,C  18)   -179.74 -0.000640    0.02   -179.72   
   188. D(H  28,C  15,C  14,C  12)     -0.48 -0.000029    0.01     -0.47   
   189. D(H  28,C  15,C  14,N   8)    179.94 -0.000179    0.01    179.95   
   190. D(C  16,C  15,C  14,C  12)    179.53  0.000575   -0.02    179.51   
   191. D(C  16,C  15,C  14,N   8)     -0.05  0.000425   -0.02     -0.07   
   192. D(H  29,C  16,C  15,H  28)      0.06  0.000104   -0.00      0.06   
   193. D(H  29,C  16,C  15,C  14)   -179.95 -0.000503    0.03   -179.93   
   194. D(C  17,C  16,C  15,H  28)   -179.85  0.000337   -0.01   -179.87   
   195. D(C  17,C  16,C  15,C  14)      0.13 -0.000270    0.02      0.15   
   196. D(H  30,C  17,C  16,H  29)      0.08  0.000500   -0.03      0.05   
   197. D(H  30,C  17,C  16,C  15)    179.99  0.000267   -0.02    179.97   
   198. D(C  18,C  17,C  16,H  29)   -179.94  0.000491   -0.03   -179.97   
   199. D(C  18,C  17,C  16,C  15)     -0.03  0.000259   -0.02     -0.05   
   200. D(H  31,C  18,C  17,C  16)    179.83  0.000797   -0.04    179.79   
   201. D(N   8,C  18,C  17,H  30)    179.81 -0.000423    0.02    179.83   
   202. D(N   8,C  18,C  17,C  16)     -0.17 -0.000413    0.02     -0.14   
   203. D(H  31,C  18,N   8,Pd 32)     27.53  0.001714   -0.10     27.43   
   204. D(H  31,C  18,N   8,C  14)   -179.75 -0.000696    0.04   -179.70   
   205. D(C  17,C  18,N   8,Pd 32)   -152.48  0.002916   -0.16   -152.64   
   206. D(H  31,C  18,C  17,H  30)     -0.19  0.000787   -0.04     -0.24   
   207. D(C  17,C  18,N   8,C  14)      0.25  0.000506   -0.02      0.23   
   208. D(N   6,Pd 32,N   8,C  18)    175.92 -0.006049    0.25    176.17   
   209. D(N   6,Pd 32,N   8,C  14)     23.16  0.002460   -0.13     23.03   
   210. D(N   8,Pd 32,N   6,C  13)    175.10  0.002814   -0.12    174.99   
   211. D(N   8,Pd 32,N   6,C  12)    -17.70 -0.001746    0.10    -17.60   
   212. D(H  35,N  34,C  33,H  37)    -98.67  0.002801   -0.14    -98.81   
   213. D(C   2,N  34,C  33,H  38)   -163.88 -0.006242    0.30   -163.58   
   214. D(C   2,N  34,C  33,H  37)     81.25  0.002895   -0.14     81.11   
   215. D(C   2,N  34,C  33,H  36)    -39.84  0.000536   -0.02    -39.86   
   216. D(H  35,N  34,C   2,O   3)    179.99  0.001370   -0.07    179.92   
   217. D(H  35,N  34,C   2,C   1)     -0.04 -0.001068    0.07      0.02   
   218. D(H  35,N  34,C  33,H  36)    140.24  0.000442   -0.02    140.22   
   219. D(C  33,N  34,C   2,O   3)      0.06  0.001274   -0.07     -0.01   
   220. D(C  33,N  34,C   2,C   1)   -179.97 -0.001163    0.06   -179.90   
   221. D(C  41,C  39,N   0,H  19)     -0.00 -0.000081    0.01      0.00   
   222. D(C  41,C  39,N   0,C   1)    179.98 -0.000780    0.04    180.02   
   223. D(O  40,C  39,N   0,H  19)    179.99 -0.000461    0.03    180.02   
   224. D(O  40,C  39,N   0,C   1)     -0.02 -0.001160    0.06      0.04   
   225. D(H  44,C  41,C  39,N   0)      0.02 -0.000285    0.02      0.04   
   226. D(H  43,C  41,C  39,O  40)     59.95  0.002588   -0.13     59.82   
   227. D(H  43,C  41,C  39,N   0)   -120.05  0.002175   -0.11   -120.16   
   228. D(H  42,C  41,C  39,O  40)    -59.97 -0.002036    0.10    -59.87   
   229. D(H  42,C  41,C  39,N   0)    120.02 -0.002448    0.12    120.14   
    ----------------------------------------------------------------------------

Geometry step timings:
Preparation and reading OPT file:      0.000 s ( 2.951 %)
Internal coordinates            :      0.000 s ( 0.209 %)
B/P matrices and projection     :      0.004 s (32.001 %)
Hessian update/contruction      :      0.001 s (12.310 %)
Making the step                 :      0.005 s (42.744 %)
Converting the step to Cartesian:      0.000 s ( 3.056 %)
Storing new data                :      0.000 s ( 0.279 %)
Checking convergence            :      0.000 s ( 0.131 %)
Final printing                  :      0.001 s ( 6.277 %)
Total time                      :      0.011 s

Time for energy+gradient        :      0.071 s
Time for complete geometry iter :      0.083 s

         *************************************************************
         *                GEOMETRY OPTIMIZATION CYCLE   2            *
         *************************************************************
---------------------------------
CARTESIAN COORDINATES (ANGSTROEM)
---------------------------------
  N    25.975616   33.503612   16.912919
  C    26.970664   32.960357   17.852808
  C    26.429796   32.805217   19.278489
  O    26.519482   31.678588   19.788255
  C    28.214179   33.849531   17.920654
  S    29.483903   33.276962   19.078647
  N    29.602199   37.178785   21.272104
  C    30.803237   34.521537   18.883718
  N    29.084498   39.495088   22.522859
  C    30.468411   35.874051   19.461567
  C    30.708290   37.043573   18.743389
  C    30.380845   38.269243   19.292259
  C    29.832254   38.303748   20.571990
  C    29.919156   36.002695   20.727831
  C    29.444486   39.577215   21.228553
  C    29.445544   40.784583   20.540980
  C    29.063915   41.937097   21.205734
  C    28.695414   41.857788   22.534444
  C    28.722076   40.621198   23.150119
  H    26.376178   34.266258   16.378931
  H    27.183131   32.041911   17.471478
  H    27.932021   34.780009   18.189141
  H    28.623795   33.897373   17.000006
  H    30.996878   34.623535   17.897707
  H    31.634018   34.165825   19.334945
  H    31.111656   37.004559   17.841683
  H    30.533909   39.105458   18.785234
  H    29.753285   35.186921   21.260676
  H    29.715613   40.817590   19.589016
  H    29.056607   42.806723   20.734456
  H    28.418650   42.664402   23.034790
  H    28.462061   40.557217   24.104111
  Pd   28.220785   37.453604   23.260553
  C    25.304742   33.720639   21.453503
  N    25.835133   33.773124   20.114568
  H    25.808184   34.662914   19.607852
  H    24.745565   32.787352   21.640356
  H    26.150449   33.796382   22.182697
  H    24.670221   34.602698   21.642132
  C    24.655725   33.264092   16.558433
  O    24.158342   32.348166   17.193227
  C    23.846588   33.994709   15.525095
  H    23.519400   33.290005   14.762570
  H    22.976975   34.443178   16.001693
  H    24.452128   34.774488   15.063830

----------------------------
CARTESIAN COORDINATES (A.U.)
----------------------------
  NO LB    ZA    FRAG    MASS        X           Y           Z
   0 N   7.0000    0    14.007   49.086800   63.312651   31.960784
   1 C   6.0000    0    12.011   50.967169   62.286048   33.736917
   2 C   6.0000    0    12.011   49.945076   61.992876   36.431064
   3 O   8.0000    0    15.999   50.114557   59.863856   37.394383
   4 C   6.0000    0    12.011   53.317071   63.966343   33.865129
   5 S  16.0000    0    32.060   55.716502   62.884345   36.053417
   6 N   7.0000    0    14.007   55.940049   70.257721   40.198450
   7 C   6.0000    0    12.011   58.209682   65.236250   35.685055
   8 N   7.0000    0    14.007   54.961737   74.634900   42.562035
   9 C   6.0000    0    12.011   57.576952   67.792131   36.777031
  10 C   6.0000    0    12.011   58.030257   70.002208   35.419871
  11 C   6.0000    0    12.011   57.411477   72.318389   36.457086
  12 C   6.0000    0    12.011   56.374789   72.383594   38.875426
  13 C   6.0000    0    12.011   56.539011   68.035233   39.169924
  14 C   6.0000    0    12.011   55.642015   74.790098   40.116152
  15 C   6.0000    0    12.011   55.644013   77.071693   38.816827
  16 C   6.0000    0    12.011   54.922839   79.249628   40.073030
  17 C   6.0000    0    12.011   54.226474   79.099757   42.583927
  18 C   6.0000    0    12.011   54.276858   76.762940   43.747385
  19 H   1.0000    0     1.008   49.843753   64.753843   30.951693
  20 H   1.0000    0     1.008   51.368673   60.550436   33.016308
  21 H   1.0000    0     1.008   52.783871   65.724691   34.372496
  22 H   1.0000    0     1.008   54.091133   64.056752   32.125356
  23 H   1.0000    0     1.008   58.575610   65.429000   33.821764
  24 H   1.0000    0     1.008   59.779630   64.564052   36.537750
  25 H   1.0000    0     1.008   58.792509   69.928482   33.715895
  26 H   1.0000    0     1.008   57.700725   73.898606   35.498947
  27 H   1.0000    0     1.008   56.225560   66.493644   40.176856
  28 H   1.0000    0     1.008   56.154370   77.134066   37.017876
  29 H   1.0000    0     1.008   54.909029   80.892983   39.182443
  30 H   1.0000    0     1.008   53.703465   80.624036   43.529444
  31 H   1.0000    0     1.008   53.785501   76.642033   45.550169
  32 Pd 46.0000    0   106.400   53.329555   70.777055   43.956074
  33 C   6.0000    0    12.011   47.819033   63.722773   40.541245
  34 N   7.0000    0    14.007   48.821326   63.821954   38.011025
  35 H   1.0000    0     1.008   48.770400   65.503415   37.053471
  36 H   1.0000    0     1.008   46.762340   61.959115   40.894346
  37 H   1.0000    0     1.008   49.417186   63.865906   41.919223
  38 H   1.0000    0     1.008   46.619961   65.389623   40.897703
  39 C   6.0000    0    12.011   46.592568   62.860024   31.290904
  40 O   8.0000    0    15.999   45.652650   61.129175   32.490490
  41 C   6.0000    0    12.011   45.063521   64.240691   29.338178
  42 H   1.0000    0     1.008   44.445226   62.908992   27.897215
  43 H   1.0000    0     1.008   43.420190   65.088174   30.238818
  44 H   1.0000    0     1.008   46.207826   65.714258   28.466513

      -----------------------------------------------------------      
     |                   =====================                   |     
     |                           x T B                           |     
[...]
    32. B(H  30,C  17)                1.0734 -0.002774  0.0023    1.0756   
    33. B(H  31,C  18)                1.0890 -0.002298  0.0007    1.0897   
    34. B(Pd 32,N   8)                1.9329  0.000125  0.0057    1.9386   
    35. B(Pd 32,N   6)                1.9257 -0.000309  0.0044    1.9300   
    36. B(N  34,C  33)                1.4484 -0.000028  0.0003    1.4487   
    37. B(N  34,C   2)                1.3379 -0.000255  0.0012    1.3390   
    38. B(H  35,N  34)                1.0092  0.000342  0.0001    1.0093   
    39. B(H  36,C  33)                1.0918  0.000256 -0.0004    1.0914   
    40. B(H  37,Pd 32)                3.6930  0.004008 -0.1335    3.5595   
    41. B(H  37,C  33)                1.0914 -0.000194  0.0015    1.0929   
    42. B(H  38,C  33)                1.0844  0.000195 -0.0003    1.0840   
    43. B(C  39,N   0)                1.3494 -0.000421 -0.0010    1.3483   
    44. B(O  40,C  39)                1.2276 -0.000373  0.0024    1.2300   
    45. B(C  41,C  39)                1.5036 -0.000345 -0.0007    1.5029   
    46. B(H  42,C  41)                1.0878  0.000020  0.0000    1.0878   
    47. B(H  43,C  41)                1.0874  0.000029 -0.0000    1.0873   
    48. B(H  44,C  41)                1.0841  0.000061 -0.0001    1.0840   
    49. A(C   1,N   0,H  19)          117.65 -0.000228   -0.15    117.50   
    50. A(H  19,N   0,C  39)          119.44 -0.000354   -0.03    119.41   
    51. A(C   1,N   0,C  39)          121.25  0.000676   -0.30    120.96   
    52. A(C   4,C   1,H  20)          110.82  0.000138    0.13    110.95   
    53. A(N   0,C   1,C   2)          110.67 -0.000032    0.01    110.68   
    54. A(C   2,C   1,C   4)          109.64 -0.000490   -0.26    109.38   
    55. A(N   0,C   1,C   4)          109.77  0.000687   -0.30    109.46   
    56. A(N   0,C   1,H  20)          110.34 -0.000486    0.13    110.47   
    57. A(C   2,C   1,H  20)          105.53  0.000150    0.33    105.86   
    58. A(C   1,C   2,O   3)          121.34 -0.000313    0.25    121.59   
    59. A(C   1,C   2,N  34)          115.07  0.001970   -0.61    114.46   
    60. A(O   3,C   2,N  34)          123.29 -0.001597    0.50    123.79   
    61. A(C   1,C   4,H  21)          110.28 -0.000160   -0.22    110.06   
    62. A(C   1,C   4,S   5)          109.39  0.000478   -0.16    109.23   
    63. A(C   1,C   4,H  22)          110.44 -0.000207    0.25    110.69   
    64. A(H  21,C   4,H  22)          110.91 -0.000300    0.11    111.02   
    65. A(S   5,C   4,H  22)          107.92  0.000295   -0.03    107.89   
    66. A(S   5,C   4,H  21)          107.82 -0.000080    0.04    107.86   
    67. A(C   4,S   5,C   7)           96.97  0.000540   -0.33     96.64   
    68. A(C  13,N   6,Pd 32)          122.32  0.000343   -0.49    121.83   
    69. A(C  12,N   6,C  13)          121.49 -0.001166    0.13    121.62   
    70. A(C  12,N   6,Pd 32)          116.17  0.000824    0.36    116.53   
    71. A(C   9,C   7,H  23)          112.53  0.000043    0.23    112.76   
    72. A(S   5,C   7,C   9)          110.94  0.000698   -1.08    109.86   
    73. A(H  23,C   7,H  24)          109.09 -0.000070    0.22    109.31   
    74. A(C   9,C   7,H  24)          110.69 -0.000597    0.40    111.09   
    75. A(S   5,C   7,H  24)          104.25 -0.000066    0.08    104.33   
    76. A(S   5,C   7,H  23)          109.00 -0.000020    0.15    109.15   
    77. A(C  14,N   8,Pd 32)          116.03  0.000670    0.13    116.16   
    78. A(C  18,N   8,Pd 32)          122.59  0.000214    0.08    122.67   
    79. A(C  14,N   8,C  18)          121.34 -0.000901   -0.07    121.27   
    80. A(C  10,C   9,C  13)          117.46 -0.000077    0.06    117.52   
    81. A(C   7,C   9,C  13)          119.45 -0.000177   -0.27    119.18   
    82. A(C   7,C   9,C  10)          123.08  0.000253    0.21    123.28   
    83. A(C  11,C  10,H  25)          119.91 -0.000103    0.12    120.02   
    84. A(C   9,C  10,H  25)          119.85 -0.000171    0.03    119.88   
    85. A(C   9,C  10,C  11)          120.24  0.000274   -0.15    120.10   
    86. A(C  10,C  11,H  26)          120.25 -0.000005    0.06    120.31   
    87. A(C  10,C  11,C  12)          119.35 -0.000055    0.01    119.36   
    88. A(C  12,C  11,H  26)          120.40  0.000059   -0.07    120.34   
    89. A(N   6,C  12,C  11)          119.62  0.000379   -0.03    119.59   
    90. A(N   6,C  12,C  14)          113.06 -0.000447   -0.20    112.86   
    91. A(C  11,C  12,C  14)          127.32  0.000069    0.23    127.55   
    92. A(N   6,C  13,C   9)          121.85  0.000646   -0.02    121.82   
    93. A(C   9,C  13,H  27)          119.34 -0.000480    0.03    119.37   
    94. A(N   6,C  13,H  27)          118.81 -0.000166   -0.02    118.78   
    95. A(C  12,C  14,C  15)          127.02  0.000346   -0.16    126.86   
    96. A(N   8,C  14,C  15)          120.01  0.000262    0.04    120.05   
    97. A(N   8,C  14,C  12)          112.96 -0.000608    0.12    113.08   
    98. A(C  16,C  15,H  28)          120.51 -0.000009    0.06    120.57   
    99. A(C  14,C  15,H  28)          120.49  0.000229   -0.15    120.34   
   100. A(C  14,C  15,C  16)          119.00 -0.000220    0.09    119.09   
   101. A(C  17,C  16,H  29)          120.02 -0.000261    0.10    120.12   
   102. A(C  15,C  16,H  29)          120.11 -0.000183    0.08    120.19   
   103. A(C  15,C  16,C  17)          119.87  0.000445   -0.18    119.68   
   104. A(C  18,C  17,H  30)          120.18 -0.000020   -0.01    120.17   
   105. A(C  16,C  17,H  30)          121.16 -0.000199    0.01    121.17   
   106. A(C  16,C  17,C  18)          118.66  0.000219    0.01    118.67   
   107. A(C  17,C  18,H  31)          121.49  0.000075   -0.07    121.42   
   108. A(N   8,C  18,H  31)          117.37 -0.000273   -0.03    117.34   
   109. A(N   8,C  18,C  17)          121.13  0.000195    0.11    121.24   
   110. A(N   6,Pd 32,N   8)           81.73 -0.000443   -0.36     81.37   
   111. A(H  37,C  33,H  38)          110.64 -0.000143   -0.14    110.49   
   112. A(H  36,C  33,H  38)          109.63 -0.000139    0.14    109.77   
   113. A(N  34,C  33,H  38)          109.78  0.000158   -0.02    109.76   
   114. A(H  36,C  33,H  37)          107.41 -0.000063    0.05    107.45   
   115. A(N  34,C  33,H  37)          109.84  0.000246   -0.24    109.60   
   116. A(N  34,C  33,H  36)          109.50 -0.000067    0.21    109.71   
   117. A(C  33,N  34,H  35)          117.42 -0.000414   -0.05    117.37   
   118. A(C   2,N  34,H  35)          118.69 -0.000094   -0.43    118.27   
   119. A(C   2,N  34,C  33)          121.40  0.000589   -0.12    121.28   
   120. A(O  40,C  39,C  41)          123.11 -0.000083    0.15    123.26   
   121. A(N   0,C  39,C  41)          115.92  0.001531   -0.33    115.59   
   122. A(N   0,C  39,O  40)          120.91 -0.001449    0.15    121.06   
   123. A(H  43,C  41,H  44)          110.17  0.000129   -0.08    110.09   
   124. A(H  42,C  41,H  44)          109.70  0.000145   -0.03    109.67   
   125. A(C  39,C  41,H  44)          112.43 -0.000171   -0.08    112.35   
   126. A(H  42,C  41,H  43)          107.03  0.000039    0.11    107.14   
   127. A(C  39,C  41,H  43)          108.93 -0.000071    0.07    109.00   
   128. A(C  39,C  41,H  42)          108.43 -0.000064    0.01    108.44   
   129. D(C   2,C   1,N   0,C  39)    -50.27 -0.000115    0.09    -50.17   
   130. D(C   4,C   1,N   0,H  19)     23.31 -0.000285    2.66     25.97   
   131. D(H  20,C   1,N   0,H  19)    -99.10 -0.000595    2.61    -96.50   
   132. D(C   4,C   1,N   0,C  39)   -171.42  0.000066    0.62   -170.80   
   133. D(C   2,C   1,N   0,H  19)    144.47 -0.000466    2.13    146.60   
   134. D(O   3,C   2,C   1,H  20)     16.16  0.000184   -0.37     15.78   
   135. D(N  34,C   2,C   1,C   4)     70.70  0.000705   -0.71     69.99   
   136. D(N  34,C   2,C   1,N   0)    -50.53  0.000190   -0.16    -50.68   
   137. D(O   3,C   2,C   1,N   0)    135.53 -0.000325   -0.02    135.51   
   138. D(O   3,C   2,C   1,C   4)   -103.24  0.000191   -0.57   -103.82   
   139. D(H  21,C   4,C   1,C   2)    -65.95 -0.000000    0.56    -65.39   
   140. D(H  21,C   4,C   1,N   0)     55.82  0.000086    0.20     56.02   
   141. D(S   5,C   4,C   1,H  20)    -63.63  0.000128    0.05    -63.57   
   142. D(H  21,C   4,C   1,H  20)    177.95  0.000030    0.24    178.20   
   143. D(S   5,C   4,C   1,C   2)     52.47  0.000098    0.37     52.84   
   144. D(S   5,C   4,C   1,N   0)    174.24  0.000184    0.01    174.25   
   145. D(C   7,S   5,C   4,H  22)     68.71 -0.000131    1.84     70.55   
   146. D(C   7,S   5,C   4,C   1)   -171.09  0.000071    2.03   -169.06   
   147. D(C   7,S   5,C   4,H  21)    -51.15  0.000106    1.69    -49.46   
   148. D(H  24,C   7,S   5,C   4)   -165.53  0.000007    0.27   -165.26   
   149. D(C   9,C   7,S   5,C   4)     75.30  0.000399    0.30     75.60   
   150. D(H  23,C   7,S   5,C   4)    -49.15 -0.000116    0.63    -48.51   
   151. D(C  13,C   9,C   7,H  23)    169.63 -0.000008    0.38    170.01   
   152. D(C  13,C   9,C   7,S   5)     47.21 -0.000526    0.80     48.01   
   153. D(C  10,C   9,C   7,H  23)     -9.12  0.000087    0.63     -8.49   
   154. D(C  10,C   9,C   7,S   5)   -131.54 -0.000431    1.05   -130.49   
   155. D(C  10,C   9,C   7,H  24)    113.24 -0.000409    1.35    114.58   
   156. D(H  25,C  10,C   9,C  13)   -179.87  0.000068   -0.21   -180.08   
   157. D(H  25,C  10,C   9,C   7)     -1.09 -0.000026   -0.46     -1.55   
   158. D(C  11,C  10,C   9,C   7)    178.73 -0.000107   -0.37    178.36   
   159. D(C  11,C  10,C   9,C  13)     -0.05 -0.000012   -0.12     -0.16   
   160. D(H  26,C  11,C  10,H  25)     -0.09 -0.000091    0.33      0.24   
   161. D(H  26,C  11,C  10,C   9)   -179.91 -0.000011    0.24   -179.67   
   162. D(C  12,C  11,C  10,H  25)    179.92 -0.000146    0.37    180.29   
   163. D(C  12,C  11,C  10,C   9)      0.10 -0.000065    0.28      0.37   
   164. D(C  14,C  12,C  11,C  10)   -179.83  0.000097   -0.06   -179.89   
   165. D(N   6,C  12,C  11,H  26)   -179.88  0.000013   -0.19   -180.07   
   166. D(N   6,C  12,C  11,C  10)      0.11  0.000067   -0.23     -0.12   
   167. D(C  14,C  12,N   6,Pd 32)     -1.88  0.000049   -0.65     -2.53   
   168. D(C  14,C  12,N   6,C  13)    179.57 -0.000007   -0.13    179.44   
   169. D(C  11,C  12,N   6,Pd 32)    178.17  0.000075   -0.51    177.66   
   170. D(C  14,C  12,C  11,H  26)      0.17  0.000043   -0.02      0.16   
   171. D(C  11,C  12,N   6,C  13)     -0.38  0.000019    0.01     -0.37   
   172. D(H  27,C  13,C   9,C  10)    178.63  0.000050   -0.54    178.10   
   173. D(H  27,C  13,C   9,C   7)     -0.19  0.000135   -0.30     -0.49   
   174. D(N   6,C  13,C   9,C  10)     -0.23  0.000091   -0.10     -0.32   
   175. D(N   6,C  13,C   9,C   7)   -179.05  0.000177    0.14   -178.91   
   176. D(H  27,C  13,N   6,Pd 32)      3.11 -0.000120    1.15      4.26   
   177. D(H  27,C  13,N   6,C  12)   -178.42 -0.000055    0.59   -177.83   
   178. D(C   9,C  13,N   6,Pd 32)   -178.02 -0.000164    0.71   -177.31   
   179. D(C   9,C  13,N   6,C  12)      0.45 -0.000100    0.15      0.60   
   180. D(C  15,C  14,C  12,N   6)   -177.15  0.000212   -1.14   -178.29   
   181. D(N   8,C  14,C  12,C  11)   -177.76  0.000106   -1.10   -178.86   
   182. D(N   8,C  14,C  12,N   6)      2.30  0.000134   -0.95      1.35   
   183. D(C  15,C  14,N   8,Pd 32)    177.77 -0.000384    2.31    180.08   
   184. D(C  15,C  14,N   8,C  18)      0.16  0.000052   -0.20     -0.04   
   185. D(C  12,C  14,N   8,Pd 32)     -1.72 -0.000313    2.13      0.41   
   186. D(C  15,C  14,C  12,C  11)      2.80  0.000184   -1.30      1.50   
   187. D(C  12,C  14,N   8,C  18)   -179.33  0.000123   -0.38   -179.71   
   188. D(H  28,C  15,C  14,C  12)     -0.69 -0.000094    0.09     -0.60   
   189. D(H  28,C  15,C  14,N   8)    179.90 -0.000007   -0.12    179.79   
   190. D(C  16,C  15,C  14,C  12)    179.13 -0.000156    0.45    179.58   
   191. D(C  16,C  15,C  14,N   8)     -0.28 -0.000068    0.24     -0.04   
   192. D(H  29,C  16,C  15,H  28)      0.26  0.000033   -0.05      0.21   
   193. D(H  29,C  16,C  15,C  14)   -179.56  0.000094   -0.41   -179.97   
   194. D(C  17,C  16,C  15,H  28)   -179.90  0.000002    0.09   -179.81   
   195. D(C  17,C  16,C  15,C  14)      0.28  0.000063   -0.27      0.01   
   196. D(H  30,C  17,C  16,H  29)     -0.22 -0.000049    0.33      0.11   
   197. D(H  30,C  17,C  16,C  15)    179.94 -0.000017    0.18    180.13   
   198. D(C  18,C  17,C  16,H  29)    179.67 -0.000072    0.40    180.07   
   199. D(C  18,C  17,C  16,C  15)     -0.16 -0.000040    0.26      0.09   
   200. D(H  31,C  18,C  17,C  16)    179.01 -0.000175    0.67    179.68   
   201. D(N   8,C  18,C  17,H  30)    179.94 -0.000001   -0.15    179.79   
   202. D(N   8,C  18,C  17,C  16)      0.04  0.000022   -0.22     -0.18   
   203. D(H  31,C  18,N   8,Pd 32)      3.50  0.000614   -3.33      0.17   
   204. D(H  31,C  18,N   8,C  14)   -179.05  0.000158   -0.66   -179.71   
   205. D(C  17,C  18,N   8,Pd 32)   -177.49  0.000428   -2.47   -179.96   
   206. D(H  31,C  18,C  17,H  30)     -1.09 -0.000198    0.74     -0.35   
   207. D(C  17,C  18,N   8,C  14)     -0.04 -0.000028    0.19      0.15   
   208. D(N   6,Pd 32,N   8,C  18)    178.16 -0.000199    0.62    178.78   
   209. D(N   6,Pd 32,N   8,C  14)      0.59  0.000273   -1.95     -1.37   
   210. D(N   8,Pd 32,N   6,C  13)    179.32 -0.000141    0.84    180.16   
   211. D(N   8,Pd 32,N   6,C  12)      0.78 -0.000174    1.40      2.17   
   212. D(H  35,N  34,C  33,H  37)   -115.37  0.000526   -2.28   -117.65   
   213. D(C   2,N  34,C  33,H  38)   -155.37  0.000349   -0.70   -156.07   
   214. D(C   2,N  34,C  33,H  37)     82.76  0.000264   -0.36     82.39   
   215. D(C   2,N  34,C  33,H  36)    -34.97  0.000235   -0.40    -35.37   
   216. D(H  35,N  34,C   2,O   3)   -172.67  0.000263    1.23   -171.44   
   217. D(H  35,N  34,C   2,C   1)     13.52 -0.000356    1.31     14.82   
   218. D(H  35,N  34,C  33,H  36)    126.91  0.000496   -2.32    124.59   
   219. D(C  33,N  34,C   2,O   3)    -11.02  0.000474   -0.64    -11.66   
   220. D(C  33,N  34,C   2,C   1)    175.17 -0.000145   -0.57    174.60   
   221. D(C  41,C  39,N   0,H  19)     -8.65  0.000301   -1.64    -10.29   
   222. D(C  41,C  39,N   0,C   1)   -173.66 -0.000078    0.45   -173.20   
   223. D(O  40,C  39,N   0,H  19)    173.81  0.000329   -1.14    172.67   
   224. D(O  40,C  39,N   0,C   1)      8.80 -0.000050    0.95      9.76   
   225. D(H  44,C  41,C  39,N   0)      0.05  0.000107   -0.24     -0.19   
   226. D(H  43,C  41,C  39,O  40)     55.12  0.000043   -0.62     54.50   
   227. D(H  43,C  41,C  39,N   0)   -122.36  0.000107   -0.13   -122.49   
   228. D(H  42,C  41,C  39,O  40)    -61.02  0.000070   -0.80    -61.81   
   229. D(H  42,C  41,C  39,N   0)    121.50  0.000135   -0.31    121.19   
    ----------------------------------------------------------------------------

Geometry step timings:
Preparation and reading OPT file:      0.001 s ( 7.662 %)
Internal coordinates            :      0.000 s ( 0.230 %)
B/P matrices and projection     :      0.003 s (29.613 %)
Hessian update/contruction      :      0.001 s ( 7.361 %)
Making the step                 :      0.005 s (40.898 %)
Converting the step to Cartesian:      0.000 s ( 2.872 %)
Storing new data                :      0.000 s ( 0.309 %)
Checking convergence            :      0.000 s ( 0.203 %)
Final printing                  :      0.001 s (10.825 %)
Total time                      :      0.011 s

Time for energy+gradient        :      0.053 s
Time for complete geometry iter :      0.066 s




    ----------------------------------------------------------------------------
                                  WARNING !!!
       The optimization did not converge but reached the maximum number of
       optimization cycles.
       Please check your results very carefully.
    ----------------------------------------------------------------------------



--------------------------------
SUGGESTED CITATIONS FOR THIS RUN
--------------------------------

Below you find a list of papers that are relevant to this ORCA run
We neither can nor want to force you to cite these papers, but we appreciate if you do
You receive ORCA, which is the product of decades of hard work by many enthusiastic individuals, for free
The only thing we kindly ask in return is that you cite our papers,
We deeply appreciate it, if you show your appreciation for ORCA by not just citing the generic ORCA reference.

Please note that relegating all ORCA citations to the supporting information does *not* help us.
SI sections are not indexed - citations you put there will not count into any citation statistics
But we need these citations in order to attract the funding resources that allow us to do what we are doing

Therefore, if you are a happy ORCA user, please consider citing a few of the papers listed below in the main body of your paper

In addition to the list printed below, the program has created the file /home/esp/scriptDevelopment/drFrankenstein/10_C8X_AMBER/01_termini_capping/geometry_optimisation/orca_opt.bibtex that contains the list in bibtex format
You can import this file easily into all common literature databanks and citation aid programs


List of essential papers. We consider these as the minimum necessary citations

  1. Bannwarth,C.; Ehlert,S.; Grimme,S.
     GFN2-xTB—An Accurate and Broadly Parametrized Self-Consistent Tight-Binding Quantum Chemical Method with Multipole Electrostatics and Density-Dependent Dispersion Contributions
     J. Chem. Theory Comput., 2019 15(3)1652-1671
     doi.org/10.1021/acs.jctc.8b01176
  2. Neese,F.
     Software update: the ORCA program system, version 5.0
     WIRES Comput. Molec. Sci., 2022 12(1)e1606
     doi.org/10.1002/wcms.1606

List of papers to cite with high priority. The work reported in these papers was absolutely
necessary for this run to complete.
Our perspective: the developers of density functionals and basis sets usually get cited in chemistry papers
Good! But without the algorithms to do something with them, the functionals or basis sets would not do anything.
Hence, in our opinion, the algorithm design and method developments papers are equally worthy of getting cited

  1. Bannwarth,C.; Caldeweyher,E.; Ehlert,S.; Hansen,A.; Pracht,P.; Seibert,J.; Spicher,S.; Grimme,S.
     Extended tight-binding quantum chemistry methods
     WIRES Comput. Molec. Sci., 2020 11(2)e1493
     doi.org/10.1002/wcms.1493

List of suggested additional citations. These are papers that are important in the 'surrounding' of 
of this run, or papers that preceded the highly important papers. If you like your results we are grateful for a citation.

  1. Neese,F.
     The ORCA program system
     WIRES Comput. Molec. Sci., 2012 2(1)73-78
     doi.org/10.1002/wcms.81
  2. Neese,F.
     Software update: the ORCA program system, version 4.0
     WIRES Comput. Molec. Sci., 2018 8(1)1-6
     doi.org/10.1002/wcms.1327
  3. Neese,F.; Wennmohs,F.; Becker,U.; Riplinger,C.
     The ORCA quantum chemistry program package
     J. Chem. Phys., 2020 152 Art. No. L224108
     doi.org/10.1063/5.0004608

List of optional additional citations

  1. Neese,F.
     Approximate second-order SCF convergence for spin unrestricted wavefunctions
     Chem. Phys. Lett., 2000 325(1-3)93-98
     doi.org/10.1016/s0009-2614(00)00662-x

Timings for individual modules:

Sum of individual times          ...        0.676 sec (=   0.011 min)
Geometry relaxation              ...        0.114 sec (=   0.002 min)  16.9 %
XTB module                       ...        0.562 sec (=   0.009 min)  83.1 %
                             ****ORCA TERMINATED NORMALLY****
TOTAL RUN TIME: 0 days 0 hours 0 minutes 0 seconds 729 msec
