18
Coordinates from ORCA-job /home/esp/scriptDevelopment/drFrankenstein/outputs/torsion_3-4-5-6/conformer_6_backwards/orca Relaxed Surface Scan Step 1 E -18.825610367910
  C       0.571859     -0.200195     -2.013878
  C       1.076082      0.744414      2.036105
  C       0.781351     -0.461571      1.672389
  C       0.484777     -1.665926      1.304260
  C       1.883546     -0.168691     -1.906006
  C      -2.567013      0.865408      0.453285
  H       0.076284     -0.775235     -2.779809
  H      -2.939320      0.547141     -0.511953
  H       2.083577      1.024257      2.299315
  H      -0.068131      0.346850     -1.341815
  H       0.330499      1.520615      2.097251
  H       0.524743     -1.964243      0.268946
  H       0.192235     -2.419420      2.017827
  H       2.527260     -0.709953     -2.580541
  H       2.377332      0.400577     -1.135775
  H      -1.771306      0.203991      0.772420
  H      -2.190499      1.877427      0.378160
  H      -3.372275      0.834555      1.175821
>
18
Coordinates from ORCA-job /home/esp/scriptDevelopment/drFrankenstein/outputs/torsion_3-4-5-6/conformer_6_backwards/orca Relaxed Surface Scan Step 2 E -18.825723893080
  C       0.559207     -0.133651     -2.057588
  C       1.107841      0.764398      2.049439
  C       0.806728     -0.443574      1.697905
  C       0.502480     -1.648129      1.336006
  C       1.861797     -0.224105     -1.890034
  C      -2.578623      0.833048      0.438178
  H       0.057974     -0.586978     -2.898301
  H      -2.933261      0.503679     -0.529995
  H       2.117119      1.046367      2.303190
  H      -0.068796      0.389930     -1.356211
  H       0.363342      1.541921      2.108538
  H       0.528484     -1.948014      0.300659
  H       0.211227     -2.399524      2.052160
  H       2.494587     -0.749336     -2.587086
  H       2.355945      0.223464     -1.043372
  H      -1.773321      0.188738      0.768290
  H      -2.220439      1.851689      0.362645
  H      -3.391291      0.790077      1.151577
>
18
Coordinates from ORCA-job /home/esp/scriptDevelopment/drFrankenstein/outputs/torsion_3-4-5-6/conformer_6_backwards/orca Relaxed Surface Scan Step 3 E -18.825805770810
  C       0.548481     -0.063878     -2.080264
  C       1.137511      0.785186      2.050114
  C       0.825889     -0.424797      1.714974
  C       0.508423     -1.629315      1.366774
  C       1.831016     -0.275775     -1.871416
  C      -2.577819      0.794071      0.418996
  H       0.053887     -0.380002     -2.984211
  H      -2.913280      0.451385     -0.551433
  H       2.150852      1.066638      2.287388
  H      -0.067174      0.435003     -1.350382
  H       0.395758      1.565286      2.110658
  H       0.521179     -1.938393      0.333538
  H       0.219306     -2.373968      2.090859
  H       2.454222     -0.777522     -2.594046
  H       2.314851      0.038532     -0.961291
  H      -1.762565      0.170014      0.762479
  H      -2.241807      1.820169      0.340215
  H      -3.397732      0.737367      1.123047
>
18
Coordinates from ORCA-job /home/esp/scriptDevelopment/drFrankenstein/outputs/torsion_3-4-5-6/conformer_6_backwards/orca Relaxed Surface Scan Step 4 E -18.825837846210
  C       0.543653      0.013444     -2.095140
  C       1.158969      0.804572      2.050997
  C       0.839402     -0.409003      1.737104
  C       0.513725     -1.617298      1.410213
  C       1.795567     -0.325833     -1.868817
  C      -2.572364      0.755643      0.396115
  H       0.064531     -0.164528     -3.044205
  H      -2.885768      0.399387     -0.576814
  H       2.175664      1.085597      2.273941
  H      -0.059806      0.484317     -1.337174
  H       0.420624      1.588250      2.106840
  H       0.514575     -1.942917      0.381889
  H       0.228505     -2.349943      2.148000
  H       2.405281     -0.800581     -2.620579
  H       2.266076     -0.146586     -0.915950
  H      -1.748221      0.152296      0.755177
  H      -2.258501      1.788629      0.315754
  H      -3.400911      0.684556      1.088649
>
18
Coordinates from ORCA-job /home/esp/scriptDevelopment/drFrankenstein/outputs/torsion_3-4-5-6/conformer_6_backwards/orca Relaxed Surface Scan Step 5 E -18.825806398020
  C       0.557365      0.091226     -2.105911
  C       1.175957      0.823412      2.044245
  C       0.850491     -0.394858      1.754728
  C       0.519176     -1.609642      1.455155
  C       1.765577     -0.377813     -1.875699
  C      -2.577856      0.721520      0.379548
  H       0.104551      0.052304     -3.083847
  H      -2.872690      0.358310     -0.596581
  H       2.196288      1.105631      2.248479
  H      -0.041708      0.528401     -1.324255
  H       0.440333      1.609781      2.096883
  H       0.503820     -1.955344      0.433962
  H       0.245791     -2.326795      2.212253
  H       2.366505     -0.822183     -2.652626
  H       2.210044     -0.333546     -0.894931
  H      -1.745979      0.135070      0.749150
  H      -2.283518      1.760417      0.303361
  H      -3.413144      0.634111      1.062086
>
18
Coordinates from ORCA-job /home/esp/scriptDevelopment/drFrankenstein/outputs/torsion_3-4-5-6/conformer_6_backwards/orca Relaxed Surface Scan Step 6 E -18.825839874830
  C       0.626311      0.221264     -2.019289
  C       1.219285      0.815502      1.855999
  C       0.828160     -0.407937      1.703638
  C       0.433286     -1.629460      1.543366
  C       1.795950     -0.357509     -1.846269
  C      -2.609682      0.650477      0.380131
  H       0.196907      0.362696     -2.997961
  H      -2.897387      0.251104     -0.583819
  H       2.262506      1.068437      1.955788
  H       0.043488      0.580528     -1.187713
  H       0.520544      1.635715      1.891845
  H       0.327529     -2.066249      0.563238
  H       0.196345     -2.262412      2.383404
  H       2.383251     -0.721676     -2.673786
  H       2.219799     -0.494150     -0.864592
  H      -1.782313      0.076359      0.777530
  H      -2.312813      1.684881      0.265118
  H      -3.450166      0.592432      1.059373
>
18
Coordinates from ORCA-job /home/esp/scriptDevelopment/drFrankenstein/outputs/torsion_3-4-5-6/conformer_6_backwards/orca Relaxed Surface Scan Step 7 E -18.825790785050
  C       0.650044      0.291604     -2.012357
  C       1.227633      0.833867      1.852469
  C       0.832872     -0.391629      1.727524
  C       0.431929     -1.614513      1.593541
  C       1.759294     -0.404034     -1.876064
  C      -2.605038      0.613049      0.361861
  H       0.260323      0.566302     -2.979150
  H      -2.867039      0.210716     -0.608249
  H       2.272167      1.088248      1.931590
  H       0.076917      0.616217     -1.159861
  H       0.528716      1.654168      1.883496
  H       0.308526     -2.067702      0.622492
  H       0.202684     -2.234402      2.445418
  H       2.335195     -0.735011     -2.725211
  H       2.142262     -0.671306     -0.904927
  H      -1.777594      0.050907      0.776082
  H      -2.319552      1.651703      0.253766
  H      -3.458338      0.541817      1.023581
>
18
Coordinates from ORCA-job /home/esp/scriptDevelopment/drFrankenstein/outputs/torsion_3-4-5-6/conformer_6_backwards/orca Relaxed Surface Scan Step 8 E -18.825704040950
  C       0.677387      0.358107     -1.991047
  C       1.248578      0.848259      1.842475
  C       0.844693     -0.376728      1.746109
  C       0.433945     -1.598920      1.643923
  C       1.717316     -0.444164     -1.902940
  C      -2.612548      0.576404      0.336843
  H       0.342610      0.760151     -2.933369
  H      -2.844252      0.172273     -0.640090
  H       2.295789      1.098096      1.894264
  H       0.109958      0.649607     -1.123153
  H       0.553793      1.671887      1.876546
  H       0.285774     -2.070934      0.685209
  H       0.219157     -2.201428      2.512012
  H       2.285886     -0.740334     -2.769750
  H       2.050316     -0.839329     -0.957339
  H      -1.784802      0.027982      0.768380
  H      -2.344035      1.620606      0.238170
  H      -3.478563      0.488464      0.979757
>
18
Coordinates from ORCA-job /home/esp/scriptDevelopment/drFrankenstein/outputs/torsion_3-4-5-6/conformer_6_backwards/orca Relaxed Surface Scan Step 9 E -18.825604715660
  C       0.721987      0.440730     -1.959891
  C       1.275331      0.859573      1.822398
  C       0.852402     -0.361487      1.765624
  C       0.422199     -1.580220      1.700900
  C       1.665336     -0.476534     -1.931173
  C      -2.620258      0.523808      0.309165
  H       0.439077      0.942044     -2.871488
  H      -2.810182      0.128854     -0.680511
  H       2.326708      1.096474      1.836835
  H       0.192991      0.740292     -1.070259
  H       0.593321      1.693751      1.859951
  H       0.238739     -2.067326      0.756335
  H       0.225464     -2.161294      2.587474
  H       2.199326     -0.777291     -2.818283
  H       1.951425     -0.969701     -1.016742
  H      -1.792927     -0.010702      0.758466
  H      -2.375746      1.575645      0.235401
  H      -3.504193      0.403383      0.921797
>
18
Coordinates from ORCA-job /home/esp/scriptDevelopment/drFrankenstein/outputs/torsion_3-4-5-6/conformer_6_backwards/orca Relaxed Surface Scan Step 10 E -18.825486674710
  C       0.766844      0.518733     -1.927111
  C       1.307527      0.870484      1.822729
  C       0.864095     -0.344349      1.800867
  C       0.412049     -1.556389      1.769971
  C       1.596410     -0.501833     -1.975094
  C      -2.621133      0.468018      0.268043
  H       0.532141      1.106523     -2.799918
  H      -2.761469      0.077828     -0.731701
  H       2.362196      1.091309      1.800923
  H       0.287577      0.819006     -1.009952
  H       0.638991      1.715452      1.863676
  H       0.192383     -2.055123      0.839281
  H       0.230907     -2.119736      2.671104
  H       2.080899     -0.804228     -2.889588
  H       1.835096     -1.082414     -1.099213
  H      -1.796988     -0.047827      0.743968
  H      -2.402435      1.526596      0.212709
  H      -3.524092      0.317950      0.845305
>
18
Coordinates from ORCA-job /home/esp/scriptDevelopment/drFrankenstein/outputs/torsion_3-4-5-6/conformer_6_backwards/orca Relaxed Surface Scan Step 11 E -18.825602419230
  C       0.747616      0.606775     -1.818802
  C       1.361154      0.838127      1.819822
  C       0.888402     -0.365560      1.859014
  C       0.412549     -1.567379      1.894291
  C       1.460766     -0.480428     -2.025039
  C      -2.566973      0.434836      0.146968
  H       0.486980      1.281200     -2.618234
  H      -2.324257     -0.183912     -0.706993
  H       2.398076      1.031554      1.598099
  H       0.398161      0.872966     -0.834855
  H       0.737231      1.699507      1.998094
  H       0.006970     -2.045436      1.016996
  H       0.399369     -2.145731      2.804673
  H       1.813814     -0.756979     -3.005438
  H       1.721072     -1.147952     -1.219976
  H      -1.893758      0.205196      0.963025
  H      -2.459538      1.477724     -0.121799
  H      -3.586634      0.245490      0.456155
>
18
Coordinates from ORCA-job /home/esp/scriptDevelopment/drFrankenstein/outputs/torsion_3-4-5-6/conformer_6_backwards/orca Relaxed Surface Scan Step 12 E -18.825532322270
  C       0.762025      0.654580     -1.782132
  C       1.394447      0.869503      1.872733
  C       0.895340     -0.323735      1.899816
  C       0.392247     -1.515258      1.924362
  C       1.312316     -0.507553     -2.064332
  C      -2.495480      0.364041      0.089768
  H       0.590252      1.403687     -2.538509
  H      -2.186460     -0.231273     -0.759669
  H       2.434424      1.043859      1.648803
  H       0.459838      0.908862     -0.779930
  H       0.792593      1.741537      2.073895
  H      -0.029078     -1.973330      1.043797
  H       0.369837     -2.102180      2.828581
  H       1.617090     -0.772395     -3.063820
  H       1.485886     -1.249861     -1.302458
  H      -1.843091      0.159078      0.928800
  H      -2.435719      1.413414     -0.168094
  H      -3.515467      0.117025      0.354389
>
18
Coordinates from ORCA-job /home/esp/scriptDevelopment/drFrankenstein/outputs/torsion_3-4-5-6/conformer_6_backwards/orca Relaxed Surface Scan Step 13 E -18.825547764000
  C       0.828908      0.669418     -1.753167
  C       1.340762      0.899653      1.925260
  C       0.888617     -0.311227      1.980822
  C       0.436055     -1.521646      2.031927
  C       1.137524     -0.550591     -2.140087
  C      -2.424574      0.365500      0.006145
  H       0.701635      1.476179     -2.455946
  H      -1.867537     -0.093417     -0.800661
  H       2.326703      1.116739      1.546376
  H       0.690595      0.914374     -0.713228
  H       0.752357      1.741766      2.252629
  H      -0.108772     -1.960462      1.211432
  H       0.582884     -2.144702      2.899587
  H       1.276795     -0.807791     -3.177662
  H       1.266141     -1.352603     -1.431657
  H      -1.903913      0.199440      0.940414
  H      -2.509027      1.428816     -0.176414
  H      -3.414155     -0.069446      0.060229
>
18
Coordinates from ORCA-job /home/esp/scriptDevelopment/drFrankenstein/outputs/torsion_3-4-5-6/conformer_6_backwards/orca Relaxed Surface Scan Step 14 E -18.825408642560
  C       0.918242      0.701563     -1.742190
  C       1.413559      0.936001      2.005759
  C       0.933773     -0.265266      2.025382
  C       0.451531     -1.465199      2.038325
  C       0.975755     -0.548841     -2.150506
  C      -2.443501      0.278039     -0.054075
  H       0.980882      1.528280     -2.431981
  H      -1.840135     -0.130448     -0.854424
  H       2.407449      1.142241      1.641876
  H       0.806053      0.958233     -0.701717
  H       0.842432      1.781460      2.354616
  H      -0.095363     -1.865952      1.200073
  H       0.573821     -2.116679      2.888596
  H       1.086914     -0.808523     -3.190796
  H       0.920556     -1.374308     -1.459670
  H      -1.937661      0.129306      0.891106
  H      -2.587769      1.337447     -0.221139
  H      -3.405539     -0.217356     -0.033235
>
18
Coordinates from ORCA-job /home/esp/scriptDevelopment/drFrankenstein/outputs/torsion_3-4-5-6/conformer_6_backwards/orca Relaxed Surface Scan Step 15 E -18.825294948480
  C       1.043931      0.660130     -1.780037
  C       1.332263      0.973827      2.039779
  C       0.899932     -0.245393      2.032845
  C       0.465066     -1.462979      2.026674
  C       0.892239     -0.559888     -2.251183
  C      -2.421651      0.282461      0.011829
  H       1.366206      1.475162     -2.406724
  H      -1.704063     -0.017036     -0.740327
  H       2.322761      1.226484      1.696788
  H       0.854079      0.902572     -0.746956
  H       0.721421      1.789137      2.392836
  H      -0.054767     -1.877441      1.178488
  H       0.605441     -2.118342      2.871225
  H       1.081116     -0.802806     -3.284216
  H       0.574118     -1.376975     -1.624326
  H      -1.941716      0.280353      0.982241
  H      -2.780524      1.278861     -0.209862
  H      -3.254853     -0.408126      0.016926
>
18
Coordinates from ORCA-job /home/esp/scriptDevelopment/drFrankenstein/outputs/torsion_3-4-5-6/conformer_6_backwards/orca Relaxed Surface Scan Step 16 E -18.825459870370
  C       1.137284      0.470161     -1.783861
  C       1.059393      1.073062      2.151676
  C       0.836482     -0.198224      2.065288
  C       0.609703     -1.467682      1.963360
  C       0.768258     -0.650075     -2.368709
  C      -2.309209      0.385135      0.055127
  H       1.581045      1.279112     -2.341940
  H      -1.713074      0.277545     -0.841378
  H       2.046736      1.486057      2.021051
  H       1.002992      0.637485     -0.727764
  H       0.267793      1.774914      2.360965
  H       0.358660     -1.925461      1.020604
  H       0.655785     -2.122913      2.818170
  H       0.900330     -0.815577     -3.425643
  H       0.322015     -1.462129     -1.818130
  H      -1.683500      0.213405      0.920362
  H      -2.725137      1.383283      0.093299
  H      -3.114556     -0.338098      0.043525
>
18
Coordinates from ORCA-job /home/esp/scriptDevelopment/drFrankenstein/outputs/torsion_3-4-5-6/conformer_6_backwards/orca Relaxed Surface Scan Step 17 E -18.825515650230
  C       1.247162      0.413139     -1.726493
  C       1.078513      1.118725      2.155403
  C       0.857042     -0.149833      2.028782
  C       0.632980     -1.416421      1.894365
  C       0.707085     -0.617595     -2.342284
  C      -2.373659      0.330976      0.049360
  H       1.886371      1.109364     -2.243457
  H      -1.786483      0.264255     -0.857322
  H       2.063931      1.536231      2.022291
  H       1.081070      0.611291     -0.680021
  H       0.291611      1.813213      2.402796
  H       0.364902     -1.846901      0.943102
  H       0.710060     -2.097627      2.726308
  H       0.879425     -0.811805     -3.388557
  H       0.065664     -1.317872     -1.832585
  H      -1.729759      0.168507      0.904058
  H      -2.822809      1.313204      0.115791
  H      -3.152108     -0.420849      0.034460
>
18
Coordinates from ORCA-job /home/esp/scriptDevelopment/drFrankenstein/outputs/torsion_3-4-5-6/conformer_6_backwards/orca Relaxed Surface Scan Step 18 E -18.825761747780
  C       1.270891      0.201901     -1.712908
  C       0.897335      1.171261      2.309297
  C       0.889194     -0.094528      2.041631
  C       0.880824     -1.358074      1.764547
  C       0.592795     -0.729454     -2.350436
  C      -2.363478      0.446537      0.028500
  H       2.056491      0.762667     -2.193001
  H      -1.806067      0.672584     -0.871224
  H       1.809756      1.746054      2.302086
  H       1.075166      0.446455     -0.681536
  H      -0.005144      1.708598      2.553006
  H       0.750474     -1.715953      0.756081
  H       1.005669     -2.106530      2.530377
  H       0.788438     -0.975822     -3.381537
  H      -0.194374     -1.291239     -1.873377
  H      -1.679305      0.125303      0.803155
  H      -2.891607      1.332502      0.356300
  H      -3.076059     -0.342263     -0.174962
>
18
Coordinates from ORCA-job /home/esp/scriptDevelopment/drFrankenstein/outputs/torsion_3-4-5-6/conformer_6_backwards/orca Relaxed Surface Scan Step 19 E -18.825867480210
  C       1.349680      0.202954     -1.681257
  C       0.953063      1.187910      2.131604
  C       0.896502     -0.099140      2.009308
  C       0.836513     -1.384380      1.876578
  C       0.562544     -0.594458     -2.372612
  C      -2.399018      0.372264      0.068152
  H       2.256310      0.611037     -2.099114
  H      -1.894791      0.881667     -0.742922
  H       1.894103      1.713490      2.160999
  H       1.127904      0.482154     -0.664249
  H       0.062586      1.791104      2.210517
  H       0.786007     -1.853422      0.906597
  H       0.833591     -2.042738      2.730296
  H       0.781704     -0.877340     -3.389543
  H      -0.342306     -1.002029     -1.952703
  H      -1.664343     -0.035120      0.750947
  H      -3.031639      1.074491      0.595614
  H      -3.007410     -0.428444     -0.332210
>
18
Coordinates from ORCA-job /home/esp/scriptDevelopment/drFrankenstein/outputs/torsion_3-4-5-6/conformer_6_backwards/orca Relaxed Surface Scan Step 20 E -18.825845842970
  C       1.423404      0.098356     -1.681046
  C       0.887209      1.222274      2.124436
  C       0.874848     -0.065009      1.993777
  C       0.858041     -1.351199      1.851643
  C       0.558840     -0.558637     -2.425776
  C      -2.409829      0.365557      0.122837
  H       2.396885      0.377231     -2.051735
  H      -1.929682      0.942949     -0.656790
  H       1.809139      1.778607      2.179888
  H       1.204229      0.384984     -0.665428
  H      -0.024665      1.794585      2.184656
  H       0.847450     -1.814333      0.877665
  H       0.851506     -2.014501      2.701455
  H       0.778986     -0.845444     -3.441526
  H      -0.414134     -0.839622     -2.057083
  H      -1.654722     -0.068793      0.765327
  H      -3.051063      1.013610      0.706420
  H      -3.005444     -0.420614     -0.322719
>
18
Coordinates from ORCA-job /home/esp/scriptDevelopment/drFrankenstein/outputs/torsion_3-4-5-6/conformer_6_backwards/orca Relaxed Surface Scan Step 21 E -18.825789602410
  C       1.475352      0.013607     -1.679150
  C       0.847895      1.243617      2.118502
  C       0.872111     -0.043715      1.989282
  C       0.892024     -1.329933      1.852174
  C       0.539769     -0.504135     -2.447382
  C      -2.426492      0.355218      0.136385
  H       2.490453      0.134296     -2.021651
  H      -1.976994      1.012163     -0.597218
  H       1.754558      1.823496      2.184973
  H       1.273507      0.335666     -0.670648
  H      -0.078766      1.792403      2.169303
  H       0.909620     -1.798507      0.880842
  H       0.896002     -1.989235      2.705300
  H       0.741260     -0.829448     -3.455244
  H      -0.474198     -0.626606     -2.103710
  H      -1.651100     -0.093129      0.743853
  H      -3.095842      0.925162      0.768028
  H      -2.988159     -0.420921     -0.367639
>
18
Coordinates from ORCA-job /home/esp/scriptDevelopment/drFrankenstein/outputs/torsion_3-4-5-6/conformer_6_backwards/orca Relaxed Surface Scan Step 22 E -18.825705812580
  C       1.485141     -0.045071     -1.684241
  C       0.844884      1.258269      2.081995
  C       0.869043     -0.033180      2.006352
  C       0.891325     -1.324118      1.924718
  C       0.528636     -0.412214     -2.511169
  C      -2.423147      0.321380      0.152533
  H       2.520945     -0.029442     -1.982861
  H      -2.002188      1.032688     -0.546478
  H       1.751476      1.839535      2.135705
  H       1.279911      0.253002     -0.669023
  H      -0.081937      1.808894      2.096644
  H       0.918619     -1.834934      0.975261
  H       0.885130     -1.944972      2.806254
  H       0.734132     -0.711749     -3.526232
  H      -0.505971     -0.432429     -2.210857
  H      -1.628299     -0.127420      0.734055
  H      -3.111967      0.831356      0.813724
  H      -2.954734     -0.449595     -0.390380
>
18
Coordinates from ORCA-job /home/esp/scriptDevelopment/drFrankenstein/outputs/torsion_3-4-5-6/conformer_6_backwards/orca Relaxed Surface Scan Step 23 E -18.825573363340
  C       1.498922     -0.126112     -1.697902
  C       0.848854      1.279220      2.059291
  C       0.875348     -0.013982      2.032906
  C       0.898424     -1.306957      1.999679
  C       0.527407     -0.311566     -2.566838
  C      -2.437763      0.282615      0.158244
  H       2.536914     -0.188883     -1.982390
  H      -2.020403      1.016352     -0.519628
  H       1.753929      1.864514      2.087849
  H       1.303684      0.096329     -0.661600
  H      -0.079462      1.827494      2.055881
  H       0.923304     -1.852871      1.069809
  H       0.893607     -1.895968      2.902788
  H       0.721168     -0.532835     -3.604038
  H      -0.509936     -0.255675     -2.280832
  H      -1.640324     -0.172471      0.730970
  H      -3.133537      0.769271      0.829575
  H      -2.959136     -0.478474     -0.407765
>
18
Coordinates from ORCA-job /home/esp/scriptDevelopment/drFrankenstein/outputs/torsion_3-4-5-6/conformer_6_backwards/orca Relaxed Surface Scan Step 24 E -18.825440853260
  C       1.506021     -0.198618     -1.718876
  C       0.853120      1.293942      2.024390
  C       0.872154      0.000756      2.050626
  C       0.888162     -1.292596      2.072442
  C       0.539642     -0.204978     -2.613033
  C      -2.445048      0.242616      0.172341
  H       2.537302     -0.348795     -1.994840
  H      -2.058046      1.000886     -0.496282
  H       1.762109      1.873766      2.024927
  H       1.311649     -0.047461     -0.669849
  H      -0.071845      1.847293      2.002304
  H       0.906761     -1.878195      1.166820
  H       0.882665     -1.842305      2.999973
  H       0.732574     -0.354340     -3.663176
  H      -0.492433     -0.063330     -2.337717
  H      -1.629299     -0.190247      0.736535
  H      -3.156976      0.692229      0.852409
  H      -2.937511     -0.530624     -0.402992
>
18
Coordinates from ORCA-job /home/esp/scriptDevelopment/drFrankenstein/outputs/torsion_3-4-5-6/conformer_6_backwards/orca Relaxed Surface Scan Step 25 E -18.825309080060
  C       1.508574     -0.274623     -1.743526
  C       0.841896      1.301749      1.978240
  C       0.862269      0.011123      2.061228
  C       0.879177     -1.279613      2.142132
  C       0.550748     -0.096209     -2.628857
  C      -2.438969      0.207662      0.179856
  H       2.518372     -0.511472     -2.037907
  H      -2.078552      0.992758     -0.472562
  H       1.748915      1.883605      1.947789
  H       1.328261     -0.194603     -0.684256
  H      -0.084826      1.851523      1.937156
  H       0.894660     -1.906631      1.264431
  H       0.879035     -1.786063      3.094055
  H       0.730576     -0.172074     -3.689185
  H      -0.460983      0.131326     -2.336492
  H      -1.609350     -0.204744      0.739163
  H      -3.168224      0.618575      0.866139
  H      -2.900581     -0.572289     -0.411403
>
18
Coordinates from ORCA-job /home/esp/scriptDevelopment/drFrankenstein/outputs/torsion_3-4-5-6/conformer_6_backwards/orca Relaxed Surface Scan Step 26 E -18.825405767530
  C       1.437859     -0.237795     -1.672493
  C       0.990428      1.289850      1.862297
  C       0.900833      0.012375      2.045231
  C       0.811928     -1.265193      2.229801
  C       0.508489      0.019987     -2.568875
  C      -2.427089      0.115001      0.121449
  H       2.402113     -0.632706     -1.950125
  H      -2.236386      1.074497     -0.340618
  H       1.944460      1.781865      1.757866
  H       1.276753     -0.066634     -0.620684
  H       0.114102      1.914736      1.797927
  H       0.745561     -1.958274      1.405955
  H       0.801963     -1.691384      3.219996
  H       0.662918     -0.150518     -3.622080
  H      -0.457295      0.408033     -2.289397
  H      -1.528181     -0.240150      0.608208
  H      -3.213620      0.220766      0.857554
  H      -2.733835     -0.594455     -0.636011
>
18
Coordinates from ORCA-job /home/esp/scriptDevelopment/drFrankenstein/outputs/torsion_3-4-5-6/conformer_6_backwards/orca Relaxed Surface Scan Step 27 E -18.825423212770
  C       1.385966     -0.335115     -1.661038
  C       0.955289      1.299656      1.876689
  C       0.928339      0.020119      2.067203
  C       0.899001     -1.260803      2.245947
  C       0.514925      0.066579     -2.562768
  C      -2.437739      0.134588      0.091596
  H       2.270886     -0.888282     -1.932227
  H      -2.341193      1.145237     -0.284008
  H       1.884558      1.838484      1.783121
  H       1.255551     -0.129022     -0.611327
  H       0.050584      1.880598      1.797293
  H       0.880633     -1.949849      1.416145
  H       0.895621     -1.696684      3.231844
  H       0.641398     -0.137135     -3.613743
  H      -0.369916      0.617060     -2.289727
  H      -1.524902     -0.153371      0.596573
  H      -3.264639      0.087835      0.788440
  H      -2.623361     -0.539896     -0.734013
>
18
Coordinates from ORCA-job /home/esp/scriptDevelopment/drFrankenstein/outputs/torsion_3-4-5-6/conformer_6_backwards/orca Relaxed Surface Scan Step 28 E -18.825388973360
  C       1.337935     -0.397814     -1.685145
  C       0.957131      1.309873      1.833624
  C       0.921512      0.039362      2.075493
  C       0.881704     -1.232518      2.309979
  C       0.532139      0.171519     -2.556668
  C      -2.408225      0.081523      0.085543
  H       2.153619     -1.032905     -1.991663
  H      -2.322379      1.108014     -0.246907
  H       1.888902      1.837404      1.707423
  H       1.220526     -0.255451     -0.623393
  H       0.056556      1.896410      1.748794
  H       0.839527     -1.958509      1.513419
  H       0.888836     -1.623353      3.314640
  H       0.648557      0.033814     -3.619544
  H      -0.284520      0.802450     -2.247513
  H      -1.497767     -0.211618      0.591621
  H      -3.245049     -0.006484      0.766180
  H      -2.568002     -0.561716     -0.769883
>
18
Coordinates from ORCA-job /home/esp/scriptDevelopment/drFrankenstein/outputs/torsion_3-4-5-6/conformer_6_backwards/orca Relaxed Surface Scan Step 29 E -18.825343102620
  C       1.285504     -0.450228     -1.714861
  C       0.969073      1.313473      1.773245
  C       0.910163      0.058239      2.081044
  C       0.847432     -1.198508      2.382598
  C       0.554004      0.282227     -2.528315
  C      -2.374317      0.019690      0.077829
  H       2.028752     -1.140640     -2.080284
  H      -2.303178      1.057836     -0.219884
  H       1.909538      1.813856      1.608271
  H       1.176335     -0.391943     -0.644329
  H       0.079111      1.912901      1.669039
  H       0.780012     -1.964406      1.626060
  H       0.859770     -1.536511      3.406183
  H       0.662850      0.230658     -3.599593
  H      -0.190291      0.968632     -2.160285
  H      -1.465921     -0.271994      0.588178
  H      -3.219473     -0.105852      0.742021
  H      -2.508364     -0.597429     -0.800920
>
18
Coordinates from ORCA-job /home/esp/scriptDevelopment/drFrankenstein/outputs/torsion_3-4-5-6/conformer_6_backwards/orca Relaxed Surface Scan Step 30 E -18.825448382480
  C       1.186966     -0.456127     -1.717501
  C       1.055618      1.297634      1.725747
  C       0.916901      0.065990      2.098156
  C       0.778674     -1.167073      2.461640
  C       0.559141      0.400767     -2.495273
  C      -2.331116     -0.060444      0.037600