47
Coordinates from ORCA-job /home/esp/scriptDevelopment/drFrankenstein/11_PCY_CHARMM/04_torsion_scanning/torsion_NH1-CT1-CG321-CG2R61/scans_PCY_conformer_46/PCY_conformer_46_forwards/orca_scan Relaxed Surface Scan Step 1 E -79.897142866980
  H      -1.954932     -0.610362      4.516508
  H      -0.681648     -2.608592      4.034363
  H      -1.029386      2.706509      2.555087
  H       1.549466      2.635463     -1.894413
  H      -2.560222      0.413552      3.181685
  H      -0.541168      3.517344      0.280911
  H       0.825383     -1.019033      1.630337
  H       0.605929      1.229796     -2.400518
  H      -1.502474     -4.764808      0.436855
  H       1.290690     -0.224612     -0.653309
  H      -2.738971     -2.799087     -0.422435
  H      -2.407728      3.228186     -2.783138
  H      -0.478117     -4.660017      2.692836
  N      -1.776236      2.490726     -2.453488
  C      -0.528776      2.996501     -2.245760
  C      -0.472757      4.425009     -2.498970
  C       0.588176      2.132585     -1.784658
  O      -1.486785      5.013202     -2.933713
  C       0.391916      1.693151     -0.348241
  C      -0.230907      2.524479      0.573209
  C      -0.507532      2.077478      1.850770
  C      -0.153181      0.788290      2.219805
  C       0.533214     -0.025182      1.327733
  C       0.798402      0.427920      0.050736
  O      -0.508809      0.296966      3.470622
  C      -1.799725     -0.316274      3.476381
  C      -1.808619     -1.537665      2.587277
  C      -1.134028     -2.660809      3.056118
  C      -1.017770     -3.813322      2.299905
  C      -1.592221     -3.875286      1.038312
  C      -2.283956     -2.785646      0.555557
  C      -2.391495     -1.616910      1.313824
  N      -3.150883     -0.567025      0.721397
  O      -2.960014      0.596827      1.050836
  O      -3.996286     -0.879527     -0.107971
  C       0.835322      6.496902     -2.446488
  N       0.685451      5.075092     -2.258900
  H       1.452596      4.584702     -1.828889
  H       1.680822      6.700309     -3.102948
  H      -0.079190      6.872324     -2.902401
  H       0.992402      6.996933     -1.489850
  C      -2.297736      1.242434     -2.244133
  O      -1.641650      0.298742     -1.822150
  C      -3.754612      1.158864     -2.605005
  H      -4.307591      1.957246     -2.117286
  H      -3.874266      1.253778     -3.681583
  H      -4.151087      0.200878     -2.278812
>
47
Coordinates from ORCA-job /home/esp/scriptDevelopment/drFrankenstein/11_PCY_CHARMM/04_torsion_scanning/torsion_NH1-CT1-CG321-CG2R61/scans_PCY_conformer_46/PCY_conformer_46_forwards/orca_scan Relaxed Surface Scan Step 2 E -79.896951397090
  H      -2.049692     -0.735804      4.506155
  H      -0.697488     -2.679763      4.023085
  H      -1.215941      2.640016      2.591101
  H       1.570713      2.758061     -1.702134
  H      -2.677420      0.278439      3.174493
  H      -0.664801      3.513771      0.353834
  H       0.789265     -1.006241      1.664816
  H       0.711688      1.343957     -2.320281
  H      -1.380322     -4.822846      0.389126
  H       1.314848     -0.151225     -0.583009
  H      -2.676036     -2.894874     -0.468367
  H      -2.382343      3.324773     -2.655917
  H      -0.395720     -4.706013      2.662063
  N      -1.753683      2.586100     -2.321798
  C      -0.486783      3.071501     -2.197947
  C      -0.413736      4.476297     -2.561475
  C       0.619535      2.226558     -1.679623
  O      -1.440985      5.054318     -2.979679
  C       0.346383      1.732360     -0.275191
  C      -0.340190      2.522733      0.636989
  C      -0.650869      2.040978      1.893984
  C      -0.264303      0.758407      2.253668
  C       0.475362     -0.016673      1.369923
  C       0.774116      0.470720      0.113166
  O      -0.627224      0.239778      3.491190
  C      -1.892437     -0.423898      3.471482
  C      -1.840273     -1.634457      2.569524
  C      -1.131731     -2.737064      3.036940
  C      -0.960396     -3.875447      2.269884
  C      -1.512367     -3.944096      0.998575
  C      -2.236304     -2.875303      0.516527
  C      -2.398870     -1.719994      1.285699
  N      -3.186891     -0.691484      0.694250
  O      -3.050804      0.473223      1.046680
  O      -4.001620     -1.023562     -0.158723
  C       0.933161      6.512484     -2.768784
  N       0.769435      5.115317     -2.451146
  H       1.560374      4.641895     -2.046293
  H       1.726169      6.638086     -3.505475
  H      -0.007248      6.874510     -3.180633
  H       1.178096      7.084338     -1.872933
  C      -2.280230      1.339635     -2.115835
  O      -1.615597      0.375841     -1.758134
  C      -3.755985      1.288092     -2.397414
  H      -4.270099      2.060590     -1.831476
  H      -3.936430      1.448497     -3.457571
  H      -4.145315      0.315500     -2.107307
>
47
Coordinates from ORCA-job /home/esp/scriptDevelopment/drFrankenstein/11_PCY_CHARMM/04_torsion_scanning/torsion_NH1-CT1-CG321-CG2R61/scans_PCY_conformer_46/PCY_conformer_46_forwards/orca_scan Relaxed Surface Scan Step 3 E -79.896327854700
  H      -2.151632     -0.847665      4.484549
  H      -0.740689     -2.748277      4.018404
  H      -1.357813      2.594651      2.641544
  H       1.568470      2.938873     -1.473518
  H      -2.791193      0.155401      3.150289
  H      -0.736021      3.539050      0.449930
  H       0.723098     -1.000706      1.683699
  H       0.869661      1.492838     -2.213969
  H      -1.266344     -4.870852      0.346476
  H       1.312844     -0.078755     -0.519725
  H      -2.594982     -2.971753     -0.525858
  H      -2.356340      3.403327     -2.536969
  H      -0.345201     -4.750147      2.645330
  N      -1.725535      2.665998     -2.202082
  C      -0.450000      3.140727     -2.141279
  C      -0.374606      4.516897     -2.604943
  C       0.659478      2.343117     -1.556328
  O      -1.418044      5.089749     -2.989379
  C       0.314391      1.786252     -0.193323
  C      -0.415278      2.541920      0.715480
  C      -0.764059      2.021418      1.946583
  C      -0.369995      0.735395      2.286432
  C       0.404622     -0.007765      1.405359
  C       0.740246      0.517777      0.173261
  O      -0.747883      0.189367      3.507336
  C      -1.986542     -0.520636      3.455717
  C      -1.874105     -1.720131      2.545133
  C      -1.146910     -2.807091      3.020503
  C      -0.923047     -3.931765      2.246772
  C      -1.439458     -4.002580      0.960669
  C      -2.180986     -2.949842      0.470108
  C      -2.396179     -1.807776      1.246191
  N      -3.198398     -0.795644      0.646244
  O      -3.109337      0.367393      1.018362
  O      -3.979027     -1.141264     -0.233318
  C       0.995465      6.494619     -3.069214
  N       0.823494      5.135422     -2.618775
  H       1.649042      4.643921     -2.318429
  H       1.683223      6.529743     -3.914136
  H       0.021855      6.870516     -3.378625
  H       1.383734      7.115924     -2.261781
  C      -2.251246      1.417876     -2.003540
  O      -1.577070      0.440864     -1.705711
  C      -3.739440      1.387755     -2.212089
  H      -4.218401      2.078482     -1.522064
  H      -3.982015      1.680815     -3.230295
  H      -4.112837      0.384590     -2.023013
>
47
Coordinates from ORCA-job /home/esp/scriptDevelopment/drFrankenstein/11_PCY_CHARMM/04_torsion_scanning/torsion_NH1-CT1-CG321-CG2R61/scans_PCY_conformer_46/PCY_conformer_46_forwards/orca_scan Relaxed Surface Scan Step 4 E -79.895472484100
  H      -2.219590     -1.009290      4.477629
  H      -0.728758     -2.832231      3.945176
  H      -1.559996      2.509515      2.704843
  H       1.506166      3.144403     -1.204852
  H      -2.888949      0.021815      3.180115
  H      -0.889385      3.532053      0.564271
  H       0.734326     -0.959045      1.767647
  H       1.030139      1.656584     -2.037437
  H      -1.119200     -4.802894      0.172970
  H       1.373235      0.038902     -0.388076
  H      -2.523015     -2.925923     -0.627798
  H      -2.336121      3.453374     -2.474412
  H      -0.231524     -4.749740      2.487410
  N      -1.718282      2.727952     -2.091513
  C      -0.435829      3.187366     -2.064995
  C      -0.336184      4.507271     -2.668531
  C       0.673169      2.463746     -1.387880
  O      -1.373225      5.073124     -3.078912
  C       0.272157      1.846935     -0.068918
  C      -0.533938      2.544763      0.821842
  C      -0.910001      1.980443      2.025320
  C      -0.464425      0.709421      2.358230
  C       0.379125      0.022852      1.494850
  C       0.741334      0.591496      0.289824
  O      -0.851251      0.122817      3.557694
  C      -2.059837     -0.633269      3.464811
  C      -1.889769     -1.787061      2.505523
  C      -1.121197     -2.862400      2.940473
  C      -0.840074     -3.939453      2.119101
  C      -1.337902     -3.972712      0.824198
  C      -2.120549     -2.932159      0.373054
  C      -2.394784     -1.838410      1.198143
  N      -3.239239     -0.838048      0.637834
  O      -3.210292      0.308216      1.065228
  O      -3.996738     -1.179579     -0.263260
  C       1.081065      6.373363     -3.385261
  N       0.880437      5.078406     -2.782639
  H       1.702965      4.572908     -2.497490
  H       1.709287      6.288041     -4.272146
  H       0.106078      6.765005     -3.669746
  H       1.551283      7.051875     -2.673327
  C      -2.263006      1.493609     -1.859346
  O      -1.602890      0.510640     -1.550395
  C      -3.754334      1.488376     -2.048623
  H      -4.212715      2.157932     -1.324189
  H      -4.010331      1.823053     -3.050299
  H      -4.138426      0.483989     -1.890127
>
47
Coordinates from ORCA-job /home/esp/scriptDevelopment/drFrankenstein/11_PCY_CHARMM/04_torsion_scanning/torsion_NH1-CT1-CG321-CG2R61/scans_PCY_conformer_46/PCY_conformer_46_forwards/orca_scan Relaxed Surface Scan Step 5 E -79.894514377160
  H      -2.257736     -1.146784      4.464167
  H      -0.695064     -2.890243      3.847833
  H      -1.720495      2.425778      2.760399
  H       1.411226      3.349828     -0.970920
  H      -2.950182     -0.076309      3.211599
  H      -1.018796      3.522976      0.668190
  H       0.772397     -0.909529      1.848425
  H       1.183796      1.831838     -1.852314
  H      -1.017207     -4.694057     -0.013290
  H       1.444537      0.161387     -0.261614
  H      -2.494505     -2.837223     -0.723467
  H      -2.316044      3.459296     -2.454309
  H      -0.128924     -4.717356      2.301447
  N      -1.714433      2.756117     -2.007720
  C      -0.427991      3.205577     -2.004458
  C      -0.307580      4.457488     -2.736974
  C       0.679710      2.580855     -1.230605
  O      -1.332469      4.991806     -3.213973
  C       0.245802      1.908668      0.047665
  C      -0.627208      2.547929      0.919680
  C      -1.020754      1.941805      2.096797
  C      -0.524301      0.688139      2.424229
  C       0.380751      0.059454      1.579574
  C       0.760231      0.669354      0.400245
  O      -0.916160      0.060402      3.601321
  C      -2.104805     -0.721091      3.470126
  C      -1.898442     -1.823996      2.459401
  C      -1.088511     -2.888416      2.843008
  C      -0.768477     -3.914257      1.971872
  C      -1.266751     -3.904994      0.676818
  C      -2.090309     -2.875525      0.275930
  C      -2.405211     -1.833822      1.151996
  N      -3.292313     -0.843845      0.641318
  O      -3.311469      0.280211      1.123279
  O      -4.039185     -1.174241     -0.272372
  C       1.145663      6.219514     -3.624554
  N       0.918579      4.998981     -2.889635
  H       1.731332      4.500876     -2.565891
  H       1.749836      6.026770     -4.511580
  H       0.177134      6.613026     -3.927808
  H       1.653457      6.948671     -2.993569
  C      -2.277521      1.538407     -1.734328
  O      -1.634344      0.555995     -1.389531
  C      -3.769234      1.551364     -1.921394
  H      -4.218370      2.179456     -1.154462
  H      -4.031035      1.945403     -2.899282
  H      -4.159614      0.542349     -1.815258
>
47
Coordinates from ORCA-job /home/esp/scriptDevelopment/drFrankenstein/11_PCY_CHARMM/04_torsion_scanning/torsion_NH1-CT1-CG321-CG2R61/scans_PCY_conformer_46/PCY_conformer_46_forwards/orca_scan Relaxed Surface Scan Step 6 E -79.893538612460
  H      -2.266362     -1.257802      4.448974
  H      -0.653608     -2.934921      3.763482
  H      -1.835624      2.348545      2.811463
  H       1.286863      3.548470     -0.779720
  H      -2.979667     -0.156148      3.235974
  H      -1.124057      3.521289      0.764847
  H       0.808751     -0.865176      1.890493
  H       1.305617      2.026132     -1.680813
  H      -0.960435     -4.618026     -0.153016
  H       1.494535      0.281784     -0.175325
  H      -2.493224     -2.779770     -0.789039
  H      -2.303499      3.462749     -2.454222
  H      -0.051274     -4.693738      2.152634
  N      -1.718136      2.786497     -1.947544
  C      -0.427063      3.223329     -1.961002
  C      -0.281770      4.402689     -2.802325
  C       0.669925      2.702519     -1.097484
  O      -1.288791      4.890351     -3.360184
  C       0.221258      1.974279      0.142193
  C      -0.700861      2.556488      1.004211
  C      -1.100446      1.907775      2.156069
  C      -0.560683      0.668270      2.469369
  C       0.386959      0.094148      1.632964
  C       0.772953      0.746739      0.478650
  O      -0.946728      0.000862      3.626485
  C      -2.122822     -0.794558      3.470383
  C      -1.897629     -1.857002      2.420936
  C      -1.055606     -2.910808      2.762293
  C      -0.715266     -3.897991      1.855039
  C      -1.224992     -3.859363      0.565033
  C      -2.079445     -2.839982      0.205294
  C      -2.415095     -1.836865      1.117954
  N      -3.332832     -0.855084      0.647469
  O      -3.386568      0.247532      1.173503
  O      -4.071867     -1.171873     -0.277536
  C       1.207906      6.071735     -3.802352
  N       0.950749      4.927721     -2.961837
  H       1.749312      4.460626     -2.564995
  H       1.835045      5.792745     -4.649709
  H       0.251271      6.439612     -4.169009
  H       1.703375      6.854680     -3.228711
  C      -2.296967      1.583402     -1.640452
  O      -1.667980      0.602581     -1.266985
  C      -3.788448      1.612147     -1.828473
  H      -4.230073      2.246930     -1.062648
  H      -4.046967      2.006352     -2.807080
  H      -4.190723      0.608158     -1.719241
>
47
Coordinates from ORCA-job /home/esp/scriptDevelopment/drFrankenstein/11_PCY_CHARMM/04_torsion_scanning/torsion_NH1-CT1-CG321-CG2R61/scans_PCY_conformer_46/PCY_conformer_46_forwards/orca_scan Relaxed Surface Scan Step 7 E -79.892493620160
  H      -2.241286     -1.366767      4.441135
  H      -0.585901     -2.967259      3.650081
  H      -1.930399      2.261146      2.868861
  H       1.123154      3.736941     -0.609719
  H      -2.980262     -0.219391      3.287734
  H      -1.230761      3.507659      0.862666
  H       0.875017     -0.810445      1.939771
  H       1.405027      2.231756     -1.494981
  H      -0.941233     -4.493270     -0.326277
  H       1.553443      0.411911     -0.086242
  H      -2.537216     -2.673701     -0.848215
  H      -2.280657      3.414715     -2.502527
  H       0.025029     -4.640118      1.952592
  N      -1.719862      2.781011     -1.917491
  C      -0.427262      3.213876     -1.926508
  C      -0.252637      4.313759     -2.865530
  C       0.644295      2.818797     -0.967345
  O      -1.235147      4.733138     -3.515162
  C       0.198521      2.038257      0.239223
  C      -0.768547      2.558455      1.092043
  C      -1.162011      1.868011      2.221242
  C      -0.570979      0.648495      2.521154
  C       0.416759      0.134661      1.692459
  C       0.797209      0.829179      0.560843
  O      -0.942753     -0.061183      3.657726
  C      -2.114607     -0.858642      3.482644
  C      -1.890321     -1.869868      2.383256
  C      -1.012223     -2.913048      2.660149
  C      -0.667249     -3.851555      1.704448
  C      -1.208747     -3.773143      0.429366
  C      -2.098631     -2.763816      0.133071
  C      -2.439469     -1.809451      1.094771
  N      -3.393885     -0.834974      0.686396
  O      -3.471638      0.240143      1.263309
  O      -4.141221     -1.131287     -0.238782
  C       1.269155      5.909406     -3.935031
  N       0.980331      4.842131     -3.008171
  H       1.760412      4.431403     -2.522402
  H       1.947738      5.566587     -4.716735
  H       0.330132      6.223844     -4.386890
  H       1.719748      6.750940     -3.409359
  C      -2.321154      1.602680     -1.559705
  O      -1.716851      0.634312     -1.119097
  C      -3.808110      1.642113     -1.781561
  H      -4.258071      2.305565     -1.045412
  H      -4.042378      2.007961     -2.776976
  H      -4.225491      0.647099     -1.648811
>
47
Coordinates from ORCA-job /home/esp/scriptDevelopment/drFrankenstein/11_PCY_CHARMM/04_torsion_scanning/torsion_NH1-CT1-CG321-CG2R61/scans_PCY_conformer_46/PCY_conformer_46_forwards/orca_scan Relaxed Surface Scan Step 8 E -79.891445227150
  H      -2.153001     -1.483298      4.452406
  H      -0.498268     -3.009853      3.509296
  H      -1.978351      2.161990      2.962921
  H       0.904091      3.930834     -0.447480
  H      -2.934094     -0.277402      3.390417
  H      -1.327468      3.494513      0.997498
  H       0.964292     -0.754961      1.961616
  H       1.473259      2.482474     -1.288862
  H      -1.007034     -4.339459     -0.520450
  H       1.602020      0.559096     -0.021530
  H      -2.652324     -2.525335     -0.877781
  H      -2.235551      3.310819     -2.600680
  H       0.062929     -4.583768      1.703161
  N      -1.714192      2.743926     -1.916462
  C      -0.428494      3.196303     -1.889934
  C      -0.216879      4.203286     -2.922922
  C       0.594732      2.951349     -0.831235
  O      -1.158190      4.508837     -3.687520
  C       0.174202      2.113029      0.344099
  C      -0.821748      2.562288      1.203804
  C      -1.189010      1.822540      2.310155
  C      -0.544073      0.622749      2.578013
  C       0.467857      0.176992      1.739611
  C       0.823987      0.922217      0.632509
  O      -0.882758     -0.137512      3.691656
  C      -2.061813     -0.924009      3.518526
  C      -1.875093     -1.873901      2.358907
  C      -0.969120     -2.913725      2.542959
  C      -0.652193     -3.796353      1.526383
  C      -1.251638     -3.663409      0.282223
  C      -2.169319     -2.656344      0.077591
  C      -2.482053     -1.757810      1.100774
  N      -3.466368     -0.779576      0.783397
  O      -3.544511      0.257785      1.425563
  O      -4.240638     -1.034567     -0.131960
  C       1.325814      5.750357     -4.033038
  N       1.001845      4.771162     -3.024099
  H       1.747825      4.470667     -2.419026
  H       2.097462      5.369028     -4.702379
  H       0.422193      5.954591     -4.604482
  H       1.675920      6.670654     -3.565958
  C      -2.342676      1.598501     -1.502804
  O      -1.779842      0.668013     -0.941989
  C      -3.810579      1.620062     -1.833284
  H      -4.304648      2.367932     -1.216348
  H      -3.967126      1.867906     -2.879274
  H      -4.250368      0.649413     -1.617982
>
47
Coordinates from ORCA-job /home/esp/scriptDevelopment/drFrankenstein/11_PCY_CHARMM/04_torsion_scanning/torsion_NH1-CT1-CG321-CG2R61/scans_PCY_conformer_46/PCY_conformer_46_forwards/orca_scan Relaxed Surface Scan Step 9 E -79.890575824660
  H      -1.782249     -1.641478      4.500315
  H      -0.418096     -3.133615      3.135298
  H      -1.737374      1.978945      3.297134
  H       0.310334      4.286470     -0.217498
  H      -2.583645     -0.254731      3.712820
  H      -1.322816      3.533223      1.444322
  H       1.201207     -0.684359      1.730448
  H       1.484320      3.150509     -0.902579
  H      -1.780854     -4.075094     -0.803405
  H       1.622367      0.874493     -0.136080
  H      -3.309349     -2.138518     -0.701504
  H      -1.879332      2.721854     -2.993971
  H      -0.324064     -4.573730      1.142691
  N      -1.520554      2.423948     -2.070516
  C      -0.398959      3.158958     -1.840001
  C      -0.136969      4.032790     -2.981778
  C       0.436386      3.268304     -0.605833
  O      -0.888749      3.976243     -3.980410
  C       0.169039      2.305317      0.517644
  C      -0.760954      2.612259      1.501936
  C      -0.998355      1.742161      2.547279
  C      -0.295764      0.547072      2.618312
  C       0.657784      0.244752      1.656186
  C       0.890607      1.124314      0.617517
  O      -0.504617     -0.355877      3.651760
  C      -1.782430     -0.990377      3.622912
  C      -1.898035     -1.822153      2.365086
  C      -1.053691     -2.925750      2.288165
  C      -0.998821     -3.733027      1.167161
  C      -1.812761     -3.456427      0.078353
  C      -2.666878     -2.377673      0.130737
  C      -2.714369     -1.550522      1.257403
  N      -3.639555     -0.470134      1.188988
  O      -3.595065      0.443882      2.000246
  O      -4.492655     -0.502949      0.308661
  C       1.253503      5.769841     -4.005819
  N       0.912778      4.874726     -2.926386
  H       1.489607      4.909998     -2.102657
  H       2.262738      5.564662     -4.362518
  H       0.543342      5.607293     -4.814393
  H       1.192052      6.806325     -3.673726
  C      -2.198057      1.377838     -1.504833
  O      -1.845960      0.764875     -0.505393
  C      -3.438121      1.033859     -2.289322
  H      -3.960296      1.931060     -2.607036
  H      -3.159364      0.458026     -3.169471
  H      -4.098296      0.430444     -1.670236
>
47
Coordinates from ORCA-job /home/esp/scriptDevelopment/drFrankenstein/11_PCY_CHARMM/04_torsion_scanning/torsion_NH1-CT1-CG321-CG2R61/scans_PCY_conformer_46/PCY_conformer_46_forwards/orca_scan Relaxed Surface Scan Step 10 E -79.891836819090
  H      -1.707079     -1.620079      4.308073
  H      -0.130478     -2.873503      2.472077
  H      -1.135351      1.982608      3.712037
  H      -0.386944      4.560388     -0.056331
  H      -2.363413     -0.164897      3.529225
  H      -0.932174      3.800272      2.069637
  H       0.873559     -0.668759      1.044449
  H       1.204807      3.959735     -0.546140
  H      -2.318640     -3.958065     -1.039587
  H       1.083594      1.153023     -0.606223
  H      -4.047722     -2.294894     -0.435981
  H      -1.265187      2.076502     -3.014878
  H      -0.354528     -4.258424      0.444364
  N      -1.243894      2.269195     -2.005272
  C      -0.381739      3.297676     -1.768096
  C       0.103608      3.875741     -3.013872
  C       0.153007      3.682843     -0.429988
  O      -0.257252      3.381663     -4.103389
  C       0.065287      2.594252      0.606350
  C      -0.527358      2.826682      1.839572
  C      -0.648550      1.808442      2.764031
  C      -0.162811      0.542227      2.466228
  C       0.481613      0.313080      1.258599
  C       0.597396      1.338606      0.340232
  O      -0.320371     -0.500006      3.372033
  C      -1.655688     -0.990759      3.415343
  C      -1.949896     -1.821859      2.190054
  C      -0.990428     -2.763910      1.828977
  C      -1.112852     -3.531010      0.686004
  C      -2.212035     -3.364799     -0.146391
  C      -3.174902     -2.437103      0.182132
  C      -3.056246     -1.666453      1.343883
  N      -4.107979     -0.747267      1.597798
  O      -4.305778     -0.349911      2.742144
  O      -4.801578     -0.391356      0.650802
  C       1.436612      5.608645     -4.119563
  N       0.930276      4.939525     -2.945893
  H       1.125576      5.365628     -2.054910
  H       2.525326      5.643526     -4.089938
  H       1.113952      5.044250     -4.992561
  H       1.044817      6.624377     -4.183038
  C      -2.201926      1.657497     -1.236825
  O      -2.461464      1.989375     -0.089356
  C      -2.897828      0.540774     -1.963161
  H      -3.248031      0.874518     -2.935612
  H      -2.206725     -0.287359     -2.103940
  H      -3.743571      0.207392     -1.367089
>
47
Coordinates from ORCA-job /home/esp/scriptDevelopment/drFrankenstein/11_PCY_CHARMM/04_torsion_scanning/torsion_NH1-CT1-CG321-CG2R61/scans_PCY_conformer_46/PCY_conformer_46_forwards/orca_scan Relaxed Surface Scan Step 11 E -79.892680031860
  H      -1.547460     -1.706119      4.288938
  H      -0.047544     -2.884269      2.376461
  H      -1.196055      1.922050      3.710965
  H      -0.694510      4.547103     -0.060958
  H      -2.286312     -0.247750      3.594974
  H      -1.099392      3.769742      2.095767
  H       0.943090     -0.577319      0.997404
  H       0.989982      4.163869     -0.449761
  H      -2.322495     -3.881057     -1.105559
  H       1.047641      1.277923     -0.626403
  H      -4.046816     -2.250895     -0.405656
  H      -1.280035      2.045526     -3.004914
  H      -0.315361     -4.207823      0.313870
  N      -1.308247      2.297792     -2.009726
  C      -0.430831      3.312802     -1.771070
  C       0.159208      3.806031     -3.007052
  C      -0.021898      3.754516     -0.408067
  O      -0.134038      3.255672     -4.089813
  C      -0.041865      2.643566      0.611384
  C      -0.642613      2.823579      1.849811
  C      -0.704283      1.786685      2.759140
  C      -0.151507      0.552930      2.440823
  C       0.499011      0.378385      1.227291
  C       0.555277      1.422622      0.324020
  O      -0.242498     -0.511529      3.328386
  C      -1.559483     -1.045010      3.418367
  C      -1.883544     -1.842038      2.177648
  C      -0.926045     -2.763007      1.761228
  C      -1.073079     -3.495567      0.598604
  C      -2.196166     -3.314199     -0.197904
  C      -3.156832     -2.404974      0.184469
  C      -3.012767     -1.668964      1.365674
  N      -4.063376     -0.764570      1.673283
  O      -4.236095     -0.404056      2.834175
  O      -4.780585     -0.382619      0.754235
  C       1.607995      5.444658     -4.111316
  N       1.004686      4.855063     -2.941032
  H       1.147243      5.329135     -2.064427
  H       2.692334      5.461828     -4.004958
  H       1.335784      4.835861     -4.971590
  H       1.244033      6.461799     -4.260530
  C      -2.300105      1.742848     -1.242039
  O      -2.581055      2.138876     -0.120245
  C      -3.001037      0.606517     -1.931256
  H      -3.375686      0.922121     -2.900905
  H      -2.306546     -0.218051     -2.075002
  H      -3.831113      0.278348     -1.310723
>
47
Coordinates from ORCA-job /home/esp/scriptDevelopment/drFrankenstein/11_PCY_CHARMM/04_torsion_scanning/torsion_NH1-CT1-CG321-CG2R61/scans_PCY_conformer_46/PCY_conformer_46_forwards/orca_scan Relaxed Surface Scan Step 12 E -79.893503470460
  H      -1.322026     -1.806987      4.254467
  H       0.082455     -2.874637      2.256135
  H      -1.343405      1.839117      3.662754
  H      -1.009023      4.523002     -0.087458
  H      -2.185276     -0.365597      3.679626
  H      -1.366288      3.708131      2.073851
  H       1.078909     -0.425997      0.980113
  H       0.730318      4.356256     -0.382961
  H      -2.280836     -3.766358     -1.194770
  H       1.057859      1.452915     -0.620937
  H      -4.013281     -2.202754     -0.372200
  H      -1.347335      2.022719     -2.986495
  H      -0.224570     -4.112951      0.147312
  N      -1.421828      2.345794     -2.015633
  C      -0.515234      3.334249     -1.775092
  C       0.204017      3.709321     -2.982968
  C      -0.223209      3.827271     -0.400968
  O      -0.026406      3.097847     -4.047799
  C      -0.172594      2.702848      0.606911
  C      -0.822386      2.809189      1.828930
  C      -0.816785      1.757259      2.723475
  C      -0.147244      0.581748      2.406800
  C       0.545414      0.483258      1.207740
  C       0.531764      1.540830      0.318321
  O      -0.148454     -0.499468      3.276046
  C      -1.427550     -1.108824      3.420260
  C      -1.780046     -1.864889      2.161334
  C      -0.817884     -2.745724      1.675177
  C      -0.986873     -3.430017      0.486304
  C      -2.137474     -3.237323     -0.267023
  C      -3.103081     -2.365434      0.183786
  C      -2.936919     -1.679308      1.391878
  N      -3.994562     -0.810418      1.769162
  O      -4.141439     -0.505079      2.950040
  O      -4.743386     -0.399522      0.887760
  C       1.838097      5.182767     -4.061133
  N       1.098945      4.716200     -2.913820
  H       1.198251      5.241656     -2.060825
  H       2.908240      5.139503     -3.859778
  H       1.598691      4.532948     -4.900939
  H       1.558554      6.207634     -4.307552
  C      -2.466463      1.882397     -1.256654
  O      -2.769333      2.366438     -0.176173
  C      -3.193395      0.735794     -1.898884
  H      -3.636186      1.053221     -2.839400
  H      -2.501917     -0.079866     -2.094716
  H      -3.979815      0.398871     -1.227992
>
47
Coordinates from ORCA-job /home/esp/scriptDevelopment/drFrankenstein/11_PCY_CHARMM/04_torsion_scanning/torsion_NH1-CT1-CG321-CG2R61/scans_PCY_conformer_46/PCY_conformer_46_forwards/orca_scan Relaxed Surface Scan Step 13 E -79.894186030820
  H      -1.002275     -1.903309      4.205185
  H       0.185054     -2.952924      2.175717
  H      -1.576682      1.671392      3.525916
  H      -1.311780      4.485298     -0.127374
  H      -2.012808     -0.502727      3.794320
  H      -1.728727      3.557077      1.976145
  H       1.332287     -0.177279      1.008481